  37  37   0   0
  0.4463353E+02  0.8642259E-09  0.8642259E-09  0.2211100E-08  0.0000000E+00
  1.000000000000000E-004
  CAR 
 CatImpurities                           
      7.45473202    -15.73227479  301      0.49975446      1.00000000
    -15.732  0.0000E+00  0.0000E+00  0.0000E+00  0.0000E+00
    -15.655  0.0000E+00  0.0000E+00  0.0000E+00  0.0000E+00
    -15.578  0.0000E+00  0.0000E+00  0.0000E+00  0.0000E+00
    -15.500  0.0000E+00  0.0000E+00  0.0000E+00  0.0000E+00
    -15.423  0.0000E+00  0.0000E+00  0.0000E+00  0.0000E+00
    -15.346  0.0000E+00  0.0000E+00  0.0000E+00  0.0000E+00
    -15.269  0.1436E-17  0.1436E-17  0.1110E-18  0.1110E-18
    -15.191  0.5222E-14  0.5222E-14  0.4037E-15  0.4037E-15
    -15.114  0.9332E-11  0.9332E-11  0.7217E-12  0.7217E-12
    -15.037  0.5186E-08  0.5186E-08  0.4016E-09  0.4016E-09
    -14.959  0.9047E-06  0.9047E-06  0.7033E-07  0.7033E-07
    -14.882  0.5020E-04  0.5020E-04  0.3950E-05  0.3950E-05
    -14.805  0.9012E-03  0.9012E-03  0.7360E-04  0.7360E-04
    -14.728  0.5341E-02  0.5341E-02  0.4864E-03  0.4864E-03
    -14.650  0.1064E-01  0.1064E-01  0.1309E-02  0.1309E-02
    -14.573  0.7183E-02  0.7183E-02  0.1864E-02  0.1864E-02
    -14.496  0.1636E-02  0.1636E-02  0.1990E-02  0.1990E-02
    -14.418  0.1236E-03  0.1236E-03  0.2000E-02  0.2000E-02
    -14.341  0.3040E-05  0.3040E-05  0.2000E-02  0.2000E-02
    -14.264  0.2387E-07  0.2387E-07  0.2000E-02  0.2000E-02
    -14.186  0.5904E-10  0.5904E-10  0.2000E-02  0.2000E-02
    -14.109  0.4551E-13  0.4551E-13  0.2000E-02  0.2000E-02
    -14.032  0.1149E-16  0.1149E-16  0.2000E-02  0.2000E-02
    -13.955  0.0000E+00  0.0000E+00  0.2000E-02  0.2000E-02
    -13.877  0.0000E+00  0.0000E+00  0.2000E-02  0.2000E-02
    -13.800  0.0000E+00  0.0000E+00  0.2000E-02  0.2000E-02
    -13.723  0.0000E+00  0.0000E+00  0.2000E-02  0.2000E-02
    -13.645  0.0000E+00  0.0000E+00  0.2000E-02  0.2000E-02
    -13.568  0.0000E+00  0.0000E+00  0.2000E-02  0.2000E-02
    -13.491  0.0000E+00  0.0000E+00  0.2000E-02  0.2000E-02
    -13.414  0.0000E+00  0.0000E+00  0.2000E-02  0.2000E-02
    -13.336  0.0000E+00  0.0000E+00  0.2000E-02  0.2000E-02
    -13.259  0.0000E+00  0.0000E+00  0.2000E-02  0.2000E-02
    -13.182  0.0000E+00  0.0000E+00  0.2000E-02  0.2000E-02
    -13.104  0.0000E+00  0.0000E+00  0.2000E-02  0.2000E-02
    -13.027  0.0000E+00  0.0000E+00  0.2000E-02  0.2000E-02
    -12.950  0.0000E+00  0.0000E+00  0.2000E-02  0.2000E-02
    -12.873  0.0000E+00  0.0000E+00  0.2000E-02  0.2000E-02
    -12.795  0.0000E+00  0.0000E+00  0.2000E-02  0.2000E-02
    -12.718  0.0000E+00  0.0000E+00  0.2000E-02  0.2000E-02
    -12.641  0.0000E+00  0.0000E+00  0.2000E-02  0.2000E-02
    -12.563  0.0000E+00  0.0000E+00  0.2000E-02  0.2000E-02
    -12.486  0.0000E+00  0.0000E+00  0.2000E-02  0.2000E-02
    -12.409  0.0000E+00  0.0000E+00  0.2000E-02  0.2000E-02
    -12.332  0.0000E+00  0.0000E+00  0.2000E-02  0.2000E-02
    -12.254  0.0000E+00  0.0000E+00  0.2000E-02  0.2000E-02
    -12.177  0.0000E+00  0.0000E+00  0.2000E-02  0.2000E-02
    -12.100  0.0000E+00  0.0000E+00  0.2000E-02  0.2000E-02
    -12.022  0.0000E+00  0.0000E+00  0.2000E-02  0.2000E-02
    -11.945  0.0000E+00  0.0000E+00  0.2000E-02  0.2000E-02
    -11.868  0.0000E+00  0.0000E+00  0.2000E-02  0.2000E-02
    -11.790  0.0000E+00  0.0000E+00  0.2000E-02  0.2000E-02
    -11.713  0.0000E+00  0.0000E+00  0.2000E-02  0.2000E-02
    -11.636  0.0000E+00  0.0000E+00  0.2000E-02  0.2000E-02
    -11.559  0.0000E+00  0.0000E+00  0.2000E-02  0.2000E-02
    -11.481  0.0000E+00  0.0000E+00  0.2000E-02  0.2000E-02
    -11.404  0.0000E+00  0.0000E+00  0.2000E-02  0.2000E-02
    -11.327  0.0000E+00  0.0000E+00  0.2000E-02  0.2000E-02
    -11.249  0.0000E+00  0.0000E+00  0.2000E-02  0.2000E-02
    -11.172  0.0000E+00  0.0000E+00  0.2000E-02  0.2000E-02
    -11.095  0.0000E+00  0.0000E+00  0.2000E-02  0.2000E-02
    -11.018  0.0000E+00  0.0000E+00  0.2000E-02  0.2000E-02
    -10.940  0.0000E+00  0.0000E+00  0.2000E-02  0.2000E-02
    -10.863  0.0000E+00  0.0000E+00  0.2000E-02  0.2000E-02
    -10.786  0.0000E+00  0.0000E+00  0.2000E-02  0.2000E-02
    -10.708  0.0000E+00  0.0000E+00  0.2000E-02  0.2000E-02
    -10.631  0.0000E+00  0.0000E+00  0.2000E-02  0.2000E-02
    -10.554  0.0000E+00  0.0000E+00  0.2000E-02  0.2000E-02
    -10.477  0.0000E+00  0.0000E+00  0.2000E-02  0.2000E-02
    -10.399  0.0000E+00  0.0000E+00  0.2000E-02  0.2000E-02
    -10.322  0.0000E+00  0.0000E+00  0.2000E-02  0.2000E-02
    -10.245  0.0000E+00  0.0000E+00  0.2000E-02  0.2000E-02
    -10.167  0.0000E+00  0.0000E+00  0.2000E-02  0.2000E-02
    -10.090  0.0000E+00  0.0000E+00  0.2000E-02  0.2000E-02
    -10.013  0.0000E+00  0.0000E+00  0.2000E-02  0.2000E-02
     -9.936  0.0000E+00  0.0000E+00  0.2000E-02  0.2000E-02
     -9.858  0.0000E+00  0.0000E+00  0.2000E-02  0.2000E-02
     -9.781  0.0000E+00  0.0000E+00  0.2000E-02  0.2000E-02
     -9.704  0.0000E+00  0.0000E+00  0.2000E-02  0.2000E-02
     -9.626  0.0000E+00  0.0000E+00  0.2000E-02  0.2000E-02
     -9.549  0.0000E+00  0.0000E+00  0.2000E-02  0.2000E-02
     -9.472  0.0000E+00  0.0000E+00  0.2000E-02  0.2000E-02
     -9.394  0.0000E+00  0.0000E+00  0.2000E-02  0.2000E-02
     -9.317  0.0000E+00  0.0000E+00  0.2000E-02  0.2000E-02
     -9.240  0.0000E+00  0.0000E+00  0.2000E-02  0.2000E-02
     -9.163  0.0000E+00  0.0000E+00  0.2000E-02  0.2000E-02
     -9.085  0.0000E+00  0.0000E+00  0.2000E-02  0.2000E-02
     -9.008  0.0000E+00  0.0000E+00  0.2000E-02  0.2000E-02
     -8.931  0.0000E+00  0.0000E+00  0.2000E-02  0.2000E-02
     -8.853  0.0000E+00  0.0000E+00  0.2000E-02  0.2000E-02
     -8.776  0.0000E+00  0.0000E+00  0.2000E-02  0.2000E-02
     -8.699  0.0000E+00  0.0000E+00  0.2000E-02  0.2000E-02
     -8.622  0.0000E+00  0.0000E+00  0.2000E-02  0.2000E-02
     -8.544  0.0000E+00  0.0000E+00  0.2000E-02  0.2000E-02
     -8.467  0.0000E+00  0.0000E+00  0.2000E-02  0.2000E-02
     -8.390  0.0000E+00  0.0000E+00  0.2000E-02  0.2000E-02
     -8.312  0.0000E+00  0.0000E+00  0.2000E-02  0.2000E-02
     -8.235  0.0000E+00  0.0000E+00  0.2000E-02  0.2000E-02
     -8.158  0.0000E+00  0.0000E+00  0.2000E-02  0.2000E-02
     -8.081  0.0000E+00  0.0000E+00  0.2000E-02  0.2000E-02
     -8.003  0.0000E+00  0.0000E+00  0.2000E-02  0.2000E-02
     -7.926  0.0000E+00  0.0000E+00  0.2000E-02  0.2000E-02
     -7.849  0.0000E+00  0.0000E+00  0.2000E-02  0.2000E-02
     -7.771  0.0000E+00  0.0000E+00  0.2000E-02  0.2000E-02
     -7.694  0.0000E+00  0.0000E+00  0.2000E-02  0.2000E-02
     -7.617  0.0000E+00  0.0000E+00  0.2000E-02  0.2000E-02
     -7.540  0.0000E+00  0.0000E+00  0.2000E-02  0.2000E-02
     -7.462  0.0000E+00  0.0000E+00  0.2000E-02  0.2000E-02
     -7.385  0.0000E+00  0.0000E+00  0.2000E-02  0.2000E-02
     -7.308  0.7182E-17  0.7182E-17  0.2000E-02  0.2000E-02
     -7.230  0.2365E-13  0.2365E-13  0.2000E-02  0.2000E-02
     -7.153  0.2422E-10  0.2422E-10  0.2000E-02  0.2000E-02
     -7.076  0.7749E-08  0.7749E-08  0.2000E-02  0.2000E-02
     -6.999  0.7831E-06  0.7831E-06  0.2000E-02  0.2000E-02
     -6.921  0.2546E-04  0.2546E-04  0.2002E-02  0.2002E-02
     -6.844  0.2760E-03  0.2760E-03  0.2023E-02  0.2023E-02
     -6.767  0.1107E-02  0.1107E-02  0.2109E-02  0.2109E-02
     -6.689  0.2207E-02  0.2207E-02  0.2280E-02  0.2280E-02
     -6.612  0.3005E-02  0.3005E-02  0.2512E-02  0.2512E-02
     -6.535  0.2841E-02  0.2841E-02  0.2731E-02  0.2731E-02
     -6.457  0.2821E-02  0.2821E-02  0.2949E-02  0.2949E-02
     -6.380  0.3440E-02  0.3440E-02  0.3215E-02  0.3215E-02
     -6.303  0.3557E-02  0.3557E-02  0.3490E-02  0.3490E-02
     -6.226  0.2990E-02  0.2990E-02  0.3721E-02  0.3721E-02
     -6.148  0.2874E-02  0.2874E-02  0.3943E-02  0.3943E-02
     -6.071  0.4297E-02  0.4297E-02  0.4275E-02  0.4275E-02
     -5.994  0.4590E-02  0.4590E-02  0.4630E-02  0.4630E-02
     -5.916  0.3522E-02  0.3522E-02  0.4902E-02  0.4902E-02
     -5.839  0.5048E-02  0.5048E-02  0.5293E-02  0.5293E-02
     -5.762  0.1133E-01  0.1133E-01  0.6169E-02  0.6169E-02
     -5.685  0.2406E-01  0.2406E-01  0.8028E-02  0.8028E-02
     -5.607  0.4705E-01  0.4705E-01  0.1166E-01  0.1166E-01
     -5.530  0.7038E-01  0.7038E-01  0.1710E-01  0.1710E-01
     -5.453  0.8118E-01  0.8118E-01  0.2338E-01  0.2338E-01
     -5.375  0.8589E-01  0.8589E-01  0.3002E-01  0.3002E-01
     -5.298  0.8914E-01  0.8914E-01  0.3691E-01  0.3691E-01
     -5.221  0.9029E-01  0.9029E-01  0.4389E-01  0.4389E-01
     -5.144  0.9284E-01  0.9284E-01  0.5106E-01  0.5106E-01
     -5.066  0.9028E-01  0.9028E-01  0.5804E-01  0.5804E-01
     -4.989  0.9234E-01  0.9234E-01  0.6518E-01  0.6518E-01
     -4.912  0.1023E+00  0.1023E+00  0.7309E-01  0.7309E-01
     -4.834  0.1020E+00  0.1020E+00  0.8097E-01  0.8097E-01
     -4.757  0.1031E+00  0.1031E+00  0.8894E-01  0.8894E-01
     -4.680  0.1088E+00  0.1088E+00  0.9735E-01  0.9735E-01
     -4.603  0.9777E-01  0.9777E-01  0.1049E+00  0.1049E+00
     -4.525  0.8423E-01  0.8423E-01  0.1114E+00  0.1114E+00
     -4.448  0.8384E-01  0.8384E-01  0.1179E+00  0.1179E+00
     -4.371  0.9280E-01  0.9280E-01  0.1251E+00  0.1251E+00
     -4.293  0.9697E-01  0.9697E-01  0.1326E+00  0.1326E+00
     -4.216  0.1012E+00  0.1012E+00  0.1404E+00  0.1404E+00
     -4.139  0.1131E+00  0.1131E+00  0.1491E+00  0.1491E+00
     -4.061  0.1307E+00  0.1307E+00  0.1592E+00  0.1592E+00
     -3.984  0.1345E+00  0.1345E+00  0.1696E+00  0.1696E+00
     -3.907  0.1290E+00  0.1290E+00  0.1796E+00  0.1796E+00
     -3.830  0.1249E+00  0.1249E+00  0.1893E+00  0.1893E+00
     -3.752  0.1188E+00  0.1188E+00  0.1984E+00  0.1984E+00
     -3.675  0.1080E+00  0.1080E+00  0.2068E+00  0.2068E+00
     -3.598  0.1065E+00  0.1065E+00  0.2150E+00  0.2150E+00
     -3.520  0.1192E+00  0.1192E+00  0.2242E+00  0.2242E+00
     -3.443  0.1273E+00  0.1273E+00  0.2341E+00  0.2341E+00
     -3.366  0.1273E+00  0.1273E+00  0.2439E+00  0.2439E+00
     -3.289  0.1201E+00  0.1201E+00  0.2532E+00  0.2532E+00
     -3.211  0.1121E+00  0.1121E+00  0.2618E+00  0.2618E+00
     -3.134  0.1213E+00  0.1213E+00  0.2712E+00  0.2712E+00
     -3.057  0.1307E+00  0.1307E+00  0.2813E+00  0.2813E+00
     -2.979  0.1252E+00  0.1252E+00  0.2910E+00  0.2910E+00
     -2.902  0.1226E+00  0.1226E+00  0.3005E+00  0.3005E+00
     -2.825  0.1357E+00  0.1357E+00  0.3110E+00  0.3110E+00
     -2.748  0.1503E+00  0.1503E+00  0.3226E+00  0.3226E+00
     -2.670  0.1500E+00  0.1500E+00  0.3342E+00  0.3342E+00
     -2.593  0.1395E+00  0.1395E+00  0.3450E+00  0.3450E+00
     -2.516  0.1327E+00  0.1327E+00  0.3552E+00  0.3552E+00
     -2.438  0.1119E+00  0.1119E+00  0.3639E+00  0.3639E+00
     -2.361  0.7261E-01  0.7261E-01  0.3695E+00  0.3695E+00
     -2.284  0.4084E-01  0.4084E-01  0.3726E+00  0.3726E+00
     -2.207  0.2906E-01  0.2906E-01  0.3749E+00  0.3749E+00
     -2.129  0.2725E-01  0.2725E-01  0.3770E+00  0.3770E+00
     -2.052  0.2226E-01  0.2226E-01  0.3787E+00  0.3787E+00
     -1.975  0.1683E-01  0.1683E-01  0.3800E+00  0.3800E+00
     -1.897  0.1497E-01  0.1497E-01  0.3812E+00  0.3812E+00
     -1.820  0.1241E-01  0.1241E-01  0.3821E+00  0.3821E+00
     -1.743  0.7976E-02  0.7976E-02  0.3827E+00  0.3827E+00
     -1.665  0.6300E-02  0.6300E-02  0.3832E+00  0.3832E+00
     -1.588  0.8016E-02  0.8016E-02  0.3838E+00  0.3838E+00
     -1.511  0.9215E-02  0.9215E-02  0.3846E+00  0.3846E+00
     -1.434  0.9493E-02  0.9493E-02  0.3853E+00  0.3853E+00
     -1.356  0.1003E-01  0.1003E-01  0.3861E+00  0.3861E+00
     -1.279  0.1046E-01  0.1046E-01  0.3869E+00  0.3869E+00
     -1.202  0.1073E-01  0.1073E-01  0.3877E+00  0.3877E+00
     -1.124  0.1037E-01  0.1037E-01  0.3885E+00  0.3885E+00
     -1.047  0.8197E-02  0.8197E-02  0.3891E+00  0.3891E+00
     -0.970  0.5916E-02  0.5916E-02  0.3896E+00  0.3896E+00
     -0.893  0.6603E-02  0.6603E-02  0.3901E+00  0.3901E+00
     -0.815  0.9040E-02  0.9040E-02  0.3908E+00  0.3908E+00
     -0.738  0.9905E-02  0.9905E-02  0.3916E+00  0.3916E+00
     -0.661  0.9618E-02  0.9618E-02  0.3923E+00  0.3923E+00
     -0.583  0.7853E-02  0.7853E-02  0.3929E+00  0.3929E+00
     -0.506  0.7717E-02  0.7717E-02  0.3935E+00  0.3935E+00
     -0.429  0.1045E-01  0.1045E-01  0.3943E+00  0.3943E+00
     -0.352  0.1110E-01  0.1110E-01  0.3952E+00  0.3952E+00
     -0.274  0.8881E-02  0.8881E-02  0.3959E+00  0.3959E+00
     -0.197  0.6466E-02  0.6466E-02  0.3964E+00  0.3964E+00
     -0.120  0.8338E-02  0.8338E-02  0.3970E+00  0.3970E+00
     -0.042  0.1162E-01  0.1162E-01  0.3979E+00  0.3979E+00
      0.035  0.1057E-01  0.1057E-01  0.3987E+00  0.3987E+00
      0.112  0.8817E-02  0.8817E-02  0.3994E+00  0.3994E+00
      0.189  0.9200E-02  0.9200E-02  0.4001E+00  0.4001E+00
      0.267  0.8596E-02  0.8596E-02  0.4008E+00  0.4008E+00
      0.344  0.8879E-02  0.8879E-02  0.4015E+00  0.4015E+00
      0.421  0.1006E-01  0.1006E-01  0.4022E+00  0.4022E+00
      0.499  0.9589E-02  0.9589E-02  0.4030E+00  0.4030E+00
      0.576  0.8495E-02  0.8495E-02  0.4036E+00  0.4036E+00
      0.653  0.9021E-02  0.9021E-02  0.4043E+00  0.4043E+00
      0.731  0.1000E-01  0.1000E-01  0.4051E+00  0.4051E+00
      0.808  0.1305E-01  0.1305E-01  0.4061E+00  0.4061E+00
      0.885  0.1433E-01  0.1433E-01  0.4072E+00  0.4072E+00
      0.962  0.1304E-01  0.1304E-01  0.4082E+00  0.4082E+00
      1.040  0.1141E-01  0.1141E-01  0.4091E+00  0.4091E+00
      1.117  0.1020E-01  0.1020E-01  0.4099E+00  0.4099E+00
      1.194  0.1130E-01  0.1130E-01  0.4108E+00  0.4108E+00
      1.272  0.1229E-01  0.1229E-01  0.4117E+00  0.4117E+00
      1.349  0.1252E-01  0.1252E-01  0.4127E+00  0.4127E+00
      1.426  0.1169E-01  0.1169E-01  0.4136E+00  0.4136E+00
      1.503  0.1009E-01  0.1009E-01  0.4144E+00  0.4144E+00
      1.581  0.1079E-01  0.1079E-01  0.4152E+00  0.4152E+00
      1.658  0.1032E-01  0.1032E-01  0.4160E+00  0.4160E+00
      1.735  0.7860E-02  0.7860E-02  0.4166E+00  0.4166E+00
      1.813  0.9247E-02  0.9247E-02  0.4173E+00  0.4173E+00
      1.890  0.1176E-01  0.1176E-01  0.4182E+00  0.4182E+00
      1.967  0.1180E-01  0.1180E-01  0.4192E+00  0.4192E+00
      2.044  0.1236E-01  0.1236E-01  0.4201E+00  0.4201E+00
      2.122  0.1223E-01  0.1223E-01  0.4211E+00  0.4211E+00
      2.199  0.1184E-01  0.1184E-01  0.4220E+00  0.4220E+00
      2.276  0.1318E-01  0.1318E-01  0.4230E+00  0.4230E+00
      2.354  0.1285E-01  0.1285E-01  0.4240E+00  0.4240E+00
      2.431  0.1031E-01  0.1031E-01  0.4248E+00  0.4248E+00
      2.508  0.8274E-02  0.8274E-02  0.4254E+00  0.4254E+00
      2.585  0.8020E-02  0.8020E-02  0.4260E+00  0.4260E+00
      2.663  0.1058E-01  0.1058E-01  0.4269E+00  0.4269E+00
      2.740  0.1536E-01  0.1536E-01  0.4281E+00  0.4281E+00
      2.817  0.1446E-01  0.1446E-01  0.4292E+00  0.4292E+00
      2.895  0.1088E-01  0.1088E-01  0.4300E+00  0.4300E+00
      2.972  0.9724E-02  0.9724E-02  0.4308E+00  0.4308E+00
      3.049  0.9792E-02  0.9792E-02  0.4315E+00  0.4315E+00
      3.126  0.1310E-01  0.1310E-01  0.4325E+00  0.4325E+00
      3.204  0.1424E-01  0.1424E-01  0.4336E+00  0.4336E+00
      3.281  0.9808E-02  0.9808E-02  0.4344E+00  0.4344E+00
      3.358  0.8249E-02  0.8249E-02  0.4350E+00  0.4350E+00
      3.436  0.1187E-01  0.1187E-01  0.4359E+00  0.4359E+00
      3.513  0.1588E-01  0.1588E-01  0.4372E+00  0.4372E+00
      3.590  0.1449E-01  0.1449E-01  0.4383E+00  0.4383E+00
      3.668  0.1156E-01  0.1156E-01  0.4392E+00  0.4392E+00
      3.745  0.1399E-01  0.1399E-01  0.4403E+00  0.4403E+00
      3.822  0.1727E-01  0.1727E-01  0.4416E+00  0.4416E+00
      3.899  0.1977E-01  0.1977E-01  0.4431E+00  0.4431E+00
      3.977  0.1961E-01  0.1961E-01  0.4446E+00  0.4446E+00
      4.054  0.1473E-01  0.1473E-01  0.4458E+00  0.4458E+00
      4.131  0.1323E-01  0.1323E-01  0.4468E+00  0.4468E+00
      4.209  0.1454E-01  0.1454E-01  0.4479E+00  0.4479E+00
      4.286  0.1486E-01  0.1486E-01  0.4491E+00  0.4491E+00
      4.363  0.1391E-01  0.1391E-01  0.4502E+00  0.4502E+00
      4.440  0.1147E-01  0.1147E-01  0.4510E+00  0.4510E+00
      4.518  0.1145E-01  0.1145E-01  0.4519E+00  0.4519E+00
      4.595  0.1460E-01  0.1460E-01  0.4531E+00  0.4531E+00
      4.672  0.1627E-01  0.1627E-01  0.4543E+00  0.4543E+00
      4.750  0.1604E-01  0.1604E-01  0.4556E+00  0.4556E+00
      4.827  0.1485E-01  0.1485E-01  0.4567E+00  0.4567E+00
      4.904  0.1506E-01  0.1506E-01  0.4579E+00  0.4579E+00
      4.981  0.1929E-01  0.1929E-01  0.4594E+00  0.4594E+00
      5.059  0.2185E-01  0.2185E-01  0.4610E+00  0.4610E+00
      5.136  0.1928E-01  0.1928E-01  0.4625E+00  0.4625E+00
      5.213  0.1516E-01  0.1516E-01  0.4637E+00  0.4637E+00
      5.291  0.1315E-01  0.1315E-01  0.4647E+00  0.4647E+00
      5.368  0.1516E-01  0.1516E-01  0.4659E+00  0.4659E+00
      5.445  0.1630E-01  0.1630E-01  0.4672E+00  0.4672E+00
      5.522  0.1407E-01  0.1407E-01  0.4682E+00  0.4682E+00
      5.600  0.1220E-01  0.1220E-01  0.4692E+00  0.4692E+00
      5.677  0.1607E-01  0.1607E-01  0.4704E+00  0.4704E+00
      5.754  0.2021E-01  0.2020E-01  0.4720E+00  0.4720E+00
      5.832  0.2292E-01  0.2292E-01  0.4738E+00  0.4738E+00
      5.909  0.2226E-01  0.2226E-01  0.4755E+00  0.4755E+00
      5.986  0.2040E-01  0.2039E-01  0.4771E+00  0.4771E+00
      6.064  0.1977E-01  0.1977E-01  0.4786E+00  0.4786E+00
      6.141  0.2017E-01  0.2017E-01  0.4801E+00  0.4801E+00
      6.218  0.1836E-01  0.1836E-01  0.4816E+00  0.4816E+00
      6.295  0.1507E-01  0.1509E-01  0.4827E+00  0.4827E+00
      6.373  0.9949E-02  0.9966E-02  0.4835E+00  0.4835E+00
      6.450  0.4822E-02  0.4816E-02  0.4839E+00  0.4839E+00
      6.527  0.1509E-02  0.1495E-02  0.4840E+00  0.4840E+00
      6.605  0.2162E-03  0.2125E-03  0.4840E+00  0.4840E+00
      6.682  0.1135E-04  0.1105E-04  0.4840E+00  0.4840E+00
      6.759  0.1993E-06  0.1924E-06  0.4840E+00  0.4840E+00
      6.836  0.1127E-08  0.1078E-08  0.4840E+00  0.4840E+00
      6.914  0.2010E-11  0.1906E-11  0.4840E+00  0.4840E+00
      6.991  0.1117E-14  0.1050E-14  0.4840E+00  0.4840E+00
      7.068  0.0000E+00  0.0000E+00  0.4840E+00  0.4840E+00
      7.146  0.0000E+00  0.0000E+00  0.4840E+00  0.4840E+00
      7.223  0.0000E+00  0.0000E+00  0.4840E+00  0.4840E+00
      7.300  0.0000E+00  0.0000E+00  0.4840E+00  0.4840E+00
      7.377  0.0000E+00  0.0000E+00  0.4840E+00  0.4840E+00
      7.455  0.0000E+00  0.0000E+00  0.4840E+00  0.4840E+00
