       N       E                     dE             d eps       ncg     rms          rms(c)
DAV:   1     0.230203627421E+04    0.23020E+04   -0.16201E+05 11632   0.117E+03
DAV:   2     0.120122618388E+02   -0.22900E+04   -0.21563E+04 12692   0.282E+02
DAV:   3    -0.992645955022E+02   -0.11128E+03   -0.10832E+03 12758   0.565E+01
DAV:   4    -0.101572802170E+03   -0.23082E+01   -0.23013E+01 12672   0.828E+00
DAV:   5    -0.101631737867E+03   -0.58936E-01   -0.58903E-01 13304   0.125E+00    0.272E+01
RMM:   6    -0.920054387886E+02    0.96263E+01   -0.29656E+01 11656   0.124E+01    0.178E+01
RMM:   7    -0.918976933669E+02    0.10775E+00   -0.23616E+00 11617   0.227E+00    0.995E+00
RMM:   8    -0.965213488113E+02   -0.46237E+01   -0.37830E+00 11653   0.272E+00    0.149E+01
RMM:   9    -0.927482144881E+02    0.37731E+01   -0.25552E+00 11660   0.160E+00    0.349E+00
RMM:  10    -0.922260134027E+02    0.52220E+00   -0.42427E-01 11659   0.883E-01    0.161E+00
RMM:  11    -0.921945009046E+02    0.31512E-01   -0.11758E-01 11641   0.288E-01    0.874E-01
RMM:  12    -0.922104986527E+02   -0.15998E-01   -0.15224E-02 11338   0.934E-02    0.682E-01
RMM:  13    -0.922375406308E+02   -0.27042E-01   -0.54101E-03  9710   0.520E-02    0.567E-01
RMM:  14    -0.923988202841E+02   -0.16128E+00   -0.43768E-02 11647   0.166E-01    0.230E-01
RMM:  15    -0.924690314702E+02   -0.70211E-01   -0.10726E-02 10784   0.761E-02    0.316E-01
RMM:  16    -0.925216802542E+02   -0.52649E-01   -0.99270E-03 10101   0.739E-02    0.149E-01
RMM:  17    -0.925369199457E+02   -0.15240E-01   -0.17749E-03  8068   0.331E-02    0.238E-01
RMM:  18    -0.925393018692E+02   -0.23819E-02   -0.78283E-04  7453   0.285E-02    0.160E-01
RMM:  19    -0.925439589860E+02   -0.46571E-02   -0.10014E-03  7357   0.265E-02    0.835E-02
RMM:  20    -0.925483655511E+02   -0.44066E-02   -0.45962E-04  7037   0.166E-02    0.684E-02
RMM:  21    -0.925508039991E+02   -0.24384E-02   -0.50996E-04  7071   0.157E-02    0.271E-02
RMM:  22    -0.925514940913E+02   -0.69009E-03   -0.14995E-04  5091   0.880E-03    0.145E-02
RMM:  23    -0.925515900903E+02   -0.95999E-04   -0.22363E-05  3264   0.547E-03
   1 F= -.10524974E+03 E0= -.10523075E+03  d E =-.105250E+03  mag=     0.0019
       N       E                     dE             d eps       ncg     rms          rms(c)
DAV:   1    -0.925594414446E+02   -0.79474E-02   -0.71813E-02 12176   0.380E-01    0.862E-02
RMM:   2    -0.925596380830E+02   -0.19664E-03   -0.20758E-03  7507   0.574E-02    0.293E-02
RMM:   3    -0.925596420368E+02   -0.39537E-05   -0.10757E-04  6460   0.169E-02
   2 F= -.10525781E+03 E0= -.10523881E+03  d E =-.806956E-02  mag=     0.0015
       N       E                     dE             d eps       ncg     rms          rms(c)
DAV:   1    -0.925553976148E+02    0.42405E-02   -0.11355E+02 11874   0.152E+01    0.637E+00
RMM:   2    -0.929191133348E+02   -0.36372E+00   -0.42798E+00 11643   0.242E+00    0.224E+00
RMM:   3    -0.928913509215E+02    0.27762E-01   -0.15561E-01 11722   0.471E-01    0.161E+00
RMM:   4    -0.928799238510E+02    0.11427E-01   -0.18846E-02 11718   0.178E-01    0.143E+00
RMM:   5    -0.928720480467E+02    0.78758E-02   -0.88356E-03  9229   0.651E-02    0.103E+00
RMM:   6    -0.928700000867E+02    0.20480E-02   -0.37177E-03  8006   0.470E-02    0.729E-01
RMM:   7    -0.928682771543E+02    0.17229E-02   -0.10827E-02  9980   0.751E-02    0.168E-01
RMM:   8    -0.928681204433E+02    0.15671E-03   -0.30281E-04  7007   0.211E-02    0.414E-02
RMM:   9    -0.928681722675E+02   -0.51824E-04   -0.67136E-05  6591   0.981E-03
   3 F= -.10555866E+03 E0= -.10553954E+03  d E =-.300853E+00  mag=     0.0003
       N       E                     dE             d eps       ncg     rms          rms(c)
DAV:   1    -0.928165131806E+02    0.51607E-01   -0.98855E+01 11868   0.132E+01    0.723E+00
RMM:   2    -0.932008494055E+02   -0.38434E+00   -0.46116E+00 11688   0.238E+00    0.231E+00
RMM:   3    -0.931791923734E+02    0.21657E-01   -0.17584E-01 11732   0.494E-01    0.173E+00
RMM:   4    -0.931678430304E+02    0.11349E-01   -0.20789E-02 11705   0.186E-01    0.153E+00
RMM:   5    -0.931593083018E+02    0.85347E-02   -0.97563E-03  9578   0.704E-02    0.111E+00
RMM:   6    -0.931570569366E+02    0.22514E-02   -0.38949E-03  8442   0.486E-02    0.796E-01
RMM:   7    -0.931551624256E+02    0.18945E-02   -0.10742E-02 10070   0.780E-02    0.188E-01
RMM:   8    -0.931550192588E+02    0.14317E-03   -0.37499E-04  7124   0.243E-02    0.361E-02
RMM:   9    -0.931551154305E+02   -0.96172E-04   -0.95379E-05  6762   0.113E-02
   4 F= -.10582294E+03 E0= -.10580342E+03  d E =-.264274E+00  mag=     0.0000
       N       E                     dE             d eps       ncg     rms          rms(c)
DAV:   1    -0.930546925586E+02    0.10033E+00   -0.89479E+01 12080   0.119E+01    0.750E+00
RMM:   2    -0.934306691866E+02   -0.37598E+00   -0.44970E+00 11687   0.249E+00    0.216E+00
RMM:   3    -0.934178517568E+02    0.12817E-01   -0.18312E-01 11760   0.551E-01    0.171E+00
RMM:   4    -0.934056319191E+02    0.12220E-01   -0.19898E-02 11781   0.198E-01    0.150E+00
RMM:   5    -0.933972717032E+02    0.83602E-02   -0.94357E-03 10223   0.785E-02    0.110E+00
RMM:   6    -0.933943172356E+02    0.29545E-02   -0.64682E-03  9729   0.665E-02    0.702E-01
RMM:   7    -0.933930506137E+02    0.12666E-02   -0.80398E-03 10176   0.767E-02    0.158E-01
RMM:   8    -0.933929060914E+02    0.14452E-03   -0.41582E-04  7372   0.256E-02    0.296E-02
RMM:   9    -0.933930679795E+02   -0.16189E-03   -0.13562E-04  6803   0.132E-02    0.300E-02
RMM:  10    -0.933931690383E+02   -0.10106E-03   -0.67648E-05  4842   0.832E-03    0.170E-02
RMM:  11    -0.933933331667E+02   -0.16413E-03   -0.10979E-04  6634   0.103E-02    0.838E-03
RMM:  12    -0.933933980457E+02   -0.64879E-04   -0.63784E-06  2902   0.516E-03
   5 F= -.10603903E+03 E0= -.10601888E+03  d E =-.216092E+00  mag=     0.0000
       N       E                     dE             d eps       ncg     rms          rms(c)
DAV:   1    -0.932164541398E+02    0.17688E+00   -0.83882E+01 12004   0.115E+01    0.744E+00
RMM:   2    -0.935799845546E+02   -0.36353E+00   -0.43059E+00 11688   0.267E+00    0.190E+00
RMM:   3    -0.935741709182E+02    0.58136E-02   -0.18832E-01 11857   0.606E-01    0.161E+00
RMM:   4    -0.935627995307E+02    0.11371E-01   -0.18070E-02 11827   0.201E-01    0.140E+00
RMM:   5    -0.935547485236E+02    0.80510E-02   -0.10310E-02 10851   0.939E-02    0.998E-01
RMM:   6    -0.935517940859E+02    0.29544E-02   -0.11738E-02 10866   0.101E-01    0.507E-01
RMM:   7    -0.935514292590E+02    0.36483E-03   -0.38038E-03  9917   0.643E-02    0.124E-01
RMM:   8    -0.935512364222E+02    0.19284E-03   -0.80204E-04  8276   0.307E-02    0.267E-02
RMM:   9    -0.935513616907E+02   -0.12527E-03   -0.13010E-04  6732   0.159E-02    0.304E-02
RMM:  10    -0.935514218087E+02   -0.60118E-04   -0.66575E-05  5174   0.932E-03
   6 F= -.10618675E+03 E0= -.10616585E+03  d E =-.147724E+00  mag=     0.0000
       N       E                     dE             d eps       ncg     rms          rms(c)
DAV:   1    -0.934342259533E+02    0.11714E+00   -0.54366E+01 11952   0.111E+01    0.433E+00
RMM:   2    -0.936161089481E+02   -0.18188E+00   -0.20677E+00 11680   0.212E+00    0.107E+00
RMM:   3    -0.936135527030E+02    0.25562E-02   -0.96312E-02 11934   0.464E-01    0.923E-01
RMM:   4    -0.936089779759E+02    0.45747E-02   -0.79439E-03 11811   0.141E-01    0.793E-01
RMM:   5    -0.936047137615E+02    0.42642E-02   -0.87077E-03 11088   0.920E-02    0.481E-01
RMM:   6    -0.936044126924E+02    0.30107E-03   -0.78807E-03 10867   0.905E-02    0.179E-01
RMM:   7    -0.936042118258E+02    0.20087E-03   -0.25724E-04  7231   0.275E-02    0.654E-02
RMM:   8    -0.936042073938E+02    0.44320E-05   -0.79510E-04  8523   0.296E-02
   7 F= -.10624794E+03 E0= -.10622654E+03  d E =-.611816E-01  mag=     0.0000
       N       E                     dE             d eps       ncg     rms          rms(c)
DAV:   1    -0.934665487358E+02    0.13766E+00   -0.72851E+01 11910   0.147E+01    0.342E+00
RMM:   2    -0.936145155390E+02   -0.14797E+00   -0.16399E+00 11692   0.226E+00    0.973E-01
RMM:   3    -0.936107399800E+02    0.37756E-02   -0.69975E-02 11935   0.435E-01    0.826E-01
RMM:   4    -0.936081932706E+02    0.25467E-02   -0.48131E-03 11721   0.120E-01    0.673E-01
RMM:   5    -0.936050485488E+02    0.31447E-02   -0.90809E-03 11553   0.106E-01    0.355E-01
RMM:   6    -0.936052743288E+02   -0.22578E-03   -0.37336E-03 10635   0.702E-02    0.146E-01
RMM:   7    -0.936050863819E+02    0.18795E-03   -0.37007E-04  7604   0.267E-02    0.459E-02
RMM:   8    -0.936051358822E+02   -0.49500E-04   -0.26203E-04  6982   0.197E-02
   8 F= -.10627522E+03 E0= -.10625350E+03  d E =-.272816E-01  mag=     0.0000
       N       E                     dE             d eps       ncg     rms          rms(c)
DAV:   1    -0.935395936855E+02    0.65493E-01   -0.32754E+01 11716   0.103E+01    0.192E+00
RMM:   2    -0.935918999498E+02   -0.52306E-01   -0.57577E-01 11699   0.150E+00    0.516E-01
RMM:   3    -0.935903680623E+02    0.15319E-02   -0.24673E-02 11934   0.281E-01    0.428E-01
RMM:   4    -0.935893617426E+02    0.10063E-02   -0.22180E-03 11687   0.814E-02    0.359E-01
RMM:   5    -0.935880246813E+02    0.13371E-02   -0.50412E-03 11573   0.851E-02    0.135E-01
RMM:   6    -0.935881194139E+02   -0.94733E-04   -0.64699E-04  8174   0.351E-02
   9 F= -.10628191E+03 E0= -.10625995E+03  d E =-.668876E-02  mag=    -0.0000
       N       E                     dE             d eps       ncg     rms          rms(c)
DAV:   1    -0.933465328028E+02    0.24149E+00   -0.15939E+02 11620   0.228E+01    0.323E+00
RMM:   2    -0.935319375210E+02   -0.18540E+00   -0.20151E+00 11694   0.311E+00    0.105E+00
RMM:   3    -0.935280186994E+02    0.39188E-02   -0.80644E-02 11912   0.560E-01    0.896E-01
RMM:   4    -0.935257166550E+02    0.23020E-02   -0.66504E-03 11726   0.150E-01    0.706E-01
RMM:   5    -0.935217796594E+02    0.39370E-02   -0.16021E-02 11640   0.167E-01    0.259E-01
RMM:   6    -0.935220027481E+02   -0.22309E-03   -0.15490E-03 10252   0.585E-02    0.119E-01
RMM:   7    -0.935216894239E+02    0.31332E-03   -0.11971E-03  9224   0.398E-02    0.195E-02
RMM:   8    -0.935217183668E+02   -0.28943E-04   -0.12682E-04  6576   0.174E-02
  10 F= -.10627144E+03 E0= -.10624880E+03  d E =0.104703E-01  mag=    -0.0000
       N       E                     dE             d eps       ncg     rms          rms(c)
DAV:   1    -0.934775783157E+02    0.44111E-01   -0.70589E+01 11684   0.150E+01    0.177E+00
RMM:   2    -0.935772603374E+02   -0.99682E-01   -0.10834E+00 11670   0.211E+00    0.671E-01
RMM:   3    -0.935739939497E+02    0.32664E-02   -0.40154E-02 11875   0.372E-01    0.491E-01
RMM:   4    -0.935727270055E+02    0.12669E-02   -0.40212E-03 11712   0.112E-01    0.398E-01
RMM:   5    -0.935704622089E+02    0.22648E-02   -0.69838E-03 11640   0.108E-01    0.150E-01
RMM:   6    -0.935705066297E+02   -0.44421E-04   -0.56842E-04  8056   0.357E-02
  11 F= -.10628439E+03 E0= -.10626227E+03  d E =-.129573E-01  mag=    -0.0000
       N       E                     dE             d eps       ncg     rms          rms(c)
DAV:   1    -0.935670973136E+02    0.33649E-02   -0.63552E+00 11808   0.444E+00    0.754E-01
RMM:   2    -0.935799334915E+02   -0.12836E-01   -0.14347E-01 11678   0.680E-01    0.238E-01
RMM:   3    -0.935795201811E+02    0.41331E-03   -0.58694E-03 11737   0.126E-01    0.182E-01
RMM:   4    -0.935793091100E+02    0.21107E-03   -0.45109E-04  7721   0.372E-02    0.146E-01
RMM:   5    -0.935790271963E+02    0.28191E-03   -0.87773E-04  8744   0.364E-02    0.631E-02
RMM:   6    -0.935790486767E+02   -0.21480E-04   -0.14606E-04  6664   0.190E-02
  12 F= -.10628380E+03 E0= -.10626182E+03  d E =0.593072E-03  mag=    -0.0000
       N       E                     dE             d eps       ncg     rms          rms(c)
DAV:   1    -0.935745190179E+02    0.45082E-02   -0.94786E-01 12088   0.178E+00    0.214E-01
RMM:   2    -0.935755182456E+02   -0.99923E-03   -0.10462E-02 11660   0.234E-01    0.620E-02
RMM:   3    -0.935754889650E+02    0.29281E-04   -0.30571E-04  7171   0.358E-02
  13 F= -.10628431E+03 E0= -.10626228E+03  d E =-.513976E-03  mag=    -0.0000
