 vasp.5.4.4.18Apr17-6-g9f103f2a35 (build Sep 18 2020 13:42:41) complex          
  
 executed on                Eagle date 2021.12.14  15:14:33
 running on   36 total cores
 distrk:  each k-point on   36 cores,    1 groups
 distr:  one band on NCORES_PER_BAND=  36 cores,    1 groups


--------------------------------------------------------------------------------------------------------


 INCAR:
 POTCAR:    PAW_PBE Cl 06Sep2000                  
 POTCAR:    PAW_PBE Ag 02Apr2005                  

 ----------------------------------------------------------------------------- 
|                                                                             |
|           W    W    AA    RRRRR   N    N  II  N    N   GGGG   !!!           |
|           W    W   A  A   R    R  NN   N  II  NN   N  G    G  !!!           |
|           W    W  A    A  R    R  N N  N  II  N N  N  G       !!!           |
|           W WW W  AAAAAA  RRRRR   N  N N  II  N  N N  G  GGG   !            |
|           WW  WW  A    A  R   R   N   NN  II  N   NN  G    G                |
|           W    W  A    A  R    R  N    N  II  N    N   GGGG   !!!           |
|                                                                             |
|      For optimal performance we recommend to set                            |
|        NCORE= 4 - approx SQRT( number of cores)                             |
|      NCORE specifies how many cores store one orbital (NPAR=cpu/NCORE).     |
|      This setting can  greatly improve the performance of VASP for DFT.     |
|      The default,   NCORE=1            might be grossly inefficient         |
|      on modern multi-core architectures or massively parallel machines.     |
|      Do your own testing !!!!                                               |
|      Unfortunately you need to use the default for GW and RPA calculations. |
|      (for HF NCORE is supported but not extensively tested yet)             |
|                                                                             |
 ----------------------------------------------------------------------------- 

 POTCAR:    PAW_PBE Cl 06Sep2000                  
   VRHFIN =Cl: s2p5                                                             
   LEXCH  = PE                                                                  
   EATOM  =   409.7259 eV,   30.1140 Ry                                         
                                                                                
   TITEL  = PAW_PBE Cl 06Sep2000                                                
   LULTRA =        F    use ultrasoft PP ?                                      
   IUNSCR =        1    unscreen: 0-lin 1-nonlin 2-no                           
   RPACOR =    1.500    partial core radius                                     
   POMASS =   35.453; ZVAL   =    7.000    mass and valenz                      
   RCORE  =    1.900    outmost cutoff radius                                   
   RWIGS  =    2.100; RWIGS  =    1.111    wigner-seitz radius (au A)           
   ENMAX  =  262.472; ENMIN  =  196.854 eV                                      
   ICORE  =        2    local potential                                         
   LCOR   =        T    correct aug charges                                     
   LPAW   =        T    paw PP                                                  
   EAUG   =  356.192                                                            
   DEXC   =    0.000                                                            
   RMAX   =    1.945    core radius for proj-oper                               
   RAUG   =    1.300    factor for augmentation sphere                          
   RDEP   =    2.020    radius for radial grids                                 
   RDEPT  =    1.678    core radius for aug-charge                              
                                                                                
   Atomic configuration                                                         
    6 entries                                                                   
     n  l   j            E        occ.                                          
     1  0  0.50     -2751.1850   2.0000                                         
     2  0  0.50      -252.6861   2.0000                                         
     2  1  1.50      -191.6157   6.0000                                         
     3  0  0.50       -20.6916   2.0000                                         
     3  1  0.50        -8.5949   5.0000                                         
     3  2  1.50        -8.1635   0.0000                                         
   Description                                                                  
     l       E           TYP  RCUT    TYP  RCUT                                 
     0    -20.6915656     23  1.900                                             
     0    -22.0521482     23  1.900                                             
     1     -8.5948577     23  1.900                                             
     1     -5.3847331     23  1.900                                             
     2     -8.1634956     23  1.900                                             
  local pseudopotential read in
  partial core-charges read in
  partial kinetic energy density read in
  atomic valenz-charges read in
  non local Contribution for L=           0  read in
    real space projection operators read in
  non local Contribution for L=           0  read in
    real space projection operators read in
  non local Contribution for L=           1  read in
    real space projection operators read in
  non local Contribution for L=           1  read in
    real space projection operators read in
    PAW grid and wavefunctions read in
 
   number of l-projection  operators is LMAX  =           4
   number of lm-projection operators is LMMAX =           8
 
 POTCAR:    PAW_PBE Ag 02Apr2005                  
   VRHFIN =Ag : s1 d10                                                          
   LEXCH  = PE                                                                  
   EATOM  =  1037.2675 eV,   76.2370 Ry                                         
                                                                                
   TITEL  = PAW_PBE Ag 02Apr2005                                                
   LULTRA =        F    use ultrasoft PP ?                                      
   IUNSCR =        1    unscreen: 0-lin 1-nonlin 2-no                           
   RPACOR =    2.000    partial core radius                                     
   POMASS =  107.868; ZVAL   =   11.000    mass and valenz                      
   RCORE  =    2.500    outmost cutoff radius                                   
   RWIGS  =    2.840; RWIGS  =    1.503    wigner-seitz radius (au A)           
   ENMAX  =  249.844; ENMIN  =  187.383 eV                                      
   ICORE  =        3    local potential                                         
   LCOR   =        T    correct aug charges                                     
   LPAW   =        T    paw PP                                                  
   EAUG   =  412.496                                                            
   DEXC   =    0.000                                                            
   RMAX   =    2.560    core radius for proj-oper                               
   RAUG   =    1.300    factor for augmentation sphere                          
   RDEP   =    2.576    radius for radial grids                                 
   RDEPT  =    2.072    core radius for aug-charge                              
                                                                                
   Atomic configuration                                                         
   12 entries                                                                   
     n  l   j            E        occ.                                          
     1  0  0.50    -25324.9161   2.0000                                         
     2  0  0.50     -3728.5341   2.0000                                         
     2  1  1.50     -3344.0404   6.0000                                         
     3  0  0.50      -683.5581   2.0000                                         
     3  1  1.50      -557.3225   6.0000                                         
     3  2  2.50      -358.3853  10.0000                                         
     4  0  0.50       -95.0341   2.0000                                         
     4  1  1.50       -58.5511   6.0000                                         
     4  2  2.50        -7.4440  10.0000                                         
     5  0  0.50        -4.4045   1.0000                                         
     5  1  0.50        -1.3606   0.0000                                         
     4  3  2.50        -1.3606   0.0000                                         
   Description                                                                  
     l       E           TYP  RCUT    TYP  RCUT                                 
     2     -7.4439781     23  2.400                                             
     2     -8.8045607     23  2.400                                             
     0     -4.4044681     23  2.400                                             
     0      1.9520038     23  2.400                                             
     1     -1.3605826     23  2.500                                             
     1     27.2116520     23  2.500                                             
     3     -4.0817478     23  2.400                                             
  local pseudopotential read in
  partial core-charges read in
  partial kinetic energy density read in
  atomic valenz-charges read in
  non local Contribution for L=           2  read in
    real space projection operators read in
  non local Contribution for L=           2  read in
    real space projection operators read in
  non local Contribution for L=           0  read in
    real space projection operators read in
  non local Contribution for L=           0  read in
    real space projection operators read in
  non local Contribution for L=           1  read in
    real space projection operators read in
  non local Contribution for L=           1  read in
    real space projection operators read in
    PAW grid and wavefunctions read in
 
   number of l-projection  operators is LMAX  =           6
   number of lm-projection operators is LMMAX =          18
 
 Optimization of the real space projectors (new method)

 maximal supplied QI-value         = 19.84
 optimisation between [QCUT,QGAM] = [ 10.12, 20.44] = [ 28.68,116.96] Ry 
 Optimized for a Real-space Cutoff    1.42 Angstroem

   l    n(q)    QCUT    max X(q) W(low)/X(q) W(high)/X(q)  e(spline) 
   0      9    10.119   168.010    0.50E-04    0.84E-04    0.57E-07
   0      9    10.119   164.674    0.49E-04    0.82E-04    0.55E-07
   1      8    10.119    69.222    0.16E-03    0.16E-03    0.24E-06
   1      8    10.119    56.786    0.16E-03    0.16E-03    0.23E-06
 Optimization of the real space projectors (new method)

 maximal supplied QI-value         = 15.12
 optimisation between [QCUT,QGAM] = [ 10.13, 20.41] = [ 28.73,116.64] Ry 
 Optimized for a Real-space Cutoff    1.55 Angstroem

   l    n(q)    QCUT    max X(q) W(low)/X(q) W(high)/X(q)  e(spline) 
   2      9    10.129    53.897    0.12E-03    0.59E-04    0.12E-06
   2      9    10.129    52.416    0.12E-03    0.58E-04    0.12E-06
   0      9    10.129   122.045    0.47E-04    0.63E-05    0.83E-07
   0      9    10.129    73.629    0.43E-04    0.60E-05    0.80E-07
   1      9    10.129    15.255    0.12E-03    0.81E-05    0.12E-06
   1      9    10.129     9.562    0.10E-03    0.55E-05    0.10E-06
  PAW_PBE Cl 06Sep2000                  :
 energy of atom  1       EATOM= -409.7259
 kinetic energy error for atom=    0.0089 (will be added to EATOM!!)
  PAW_PBE Ag 02Apr2005                  :
 energy of atom  2       EATOM=-1037.2675
 kinetic energy error for atom=    0.0091 (will be added to EATOM!!)
 
 
 POSCAR: Ag                                      
  positions in direct lattice
  No initial velocities read in
 exchange correlation table for  LEXCH =        8
   RHO(1)=    0.500       N(1)  =     2000
   RHO(2)=  100.500       N(2)  =     4000

 VTST: version 3.2, (02/03/18)

 CHAIN: initializing optimizer
 
 OPT: Using LBFGS optimizer
 OPT: LBFGS, Init
 OPT: LBFGS, MEMORY             20
 OPT: LBFGS, IMAGES              1
 OPT: LBFGS, MAXMOVE      0.200000
 OPT: LBFGS, LGLOBAL      T
 OPT: LBFGS, INVCURV      0.010000
 OPT: LBFGS, LLINEOPT      F
 OPT: LBFGS, FDSTEP       0.005000
 OPT: LBFGS, LAUTOSCALE      T
 OPT: LBFGS, DAMPING      2.000000
 
 CHAIN: Read ICHAIN            0
 
 POSCAR: Ag                                      
  positions in direct lattice
  No initial velocities read in
 


--------------------------------------------------------------------------------------------------------


 ion  position               nearest neighbor table
   1  0.170  0.170  0.410-
   2  0.000  0.000  0.279-   3 2.88   4 2.88   5 2.88   8 2.88  11 2.90  13 2.90  17 2.90  19 2.90

   3  0.333  0.000  0.279-   4 2.88   2 2.88   6 2.88   9 2.88  12 2.90  18 2.90  17 2.90  11 2.90

   4  0.667  0.000  0.279-   3 2.88   2 2.88   7 2.88  10 2.88  12 2.90  18 2.90  13 2.90  19 2.90

   5  0.000  0.333  0.279-   8 2.88   6 2.88   7 2.88   2 2.88  14 2.90  16 2.90  11 2.90  13 2.90

   6  0.333  0.333  0.279-   7 2.88   9 2.88   3 2.88   5 2.88  15 2.90  14 2.90  12 2.90  11 2.90

   7  0.667  0.333  0.279-   6 2.88  10 2.88   4 2.88   5 2.88  15 2.90  12 2.90  16 2.90  13 2.90

   8  0.000  0.667  0.279-   5 2.88   2 2.88   9 2.88  10 2.88  14 2.90  16 2.90  17 2.90  19 2.90

   9  0.333  0.667  0.279-   6 2.88  10 2.88   8 2.88   3 2.88  15 2.90  14 2.90  18 2.90  17 2.90

  10  0.667  0.667  0.279-   7 2.88   9 2.88   8 2.88   4 2.88  15 2.90  16 2.90  18 2.90  19 2.90

  11  0.167  0.167  0.186-  13 2.88  17 2.88  14 2.88  12 2.88   2 2.90   3 2.90   5 2.90   6 2.90
                            20 2.90  21 2.90  23 2.90  24 2.90
  12  0.500  0.167  0.186-  18 2.88  13 2.88  15 2.88  11 2.88   3 2.90   4 2.90   6 2.90   7 2.90
                            21 2.90  22 2.90  24 2.90  25 2.90
  13  0.833  0.167  0.186-  11 2.88  19 2.88  16 2.88  12 2.88   2 2.90   4 2.90   5 2.90   7 2.90
                            20 2.90  22 2.90  23 2.90  25 2.90
  14  0.167  0.500  0.186-  16 2.88  15 2.88  11 2.88  17 2.88   5 2.90   8 2.90   6 2.90   9 2.90
                            23 2.90  26 2.90  24 2.90  27 2.90
  15  0.500  0.500  0.186-  12 2.88  14 2.88  16 2.88  18 2.88   6 2.90   7 2.90   9 2.90  10 2.90
                            24 2.90  25 2.90  27 2.90  28 2.90
  16  0.833  0.500  0.186-  14 2.88  13 2.88  15 2.88  19 2.88   5 2.90   8 2.90   7 2.90  10 2.90
                            23 2.90  26 2.90  25 2.90  28 2.90
  17  0.167  0.833  0.186-  11 2.88  19 2.88  18 2.88  14 2.88   2 2.90   3 2.90   8 2.90   9 2.90
                            20 2.90  21 2.90  26 2.90  27 2.90
  18  0.500  0.833  0.186-  12 2.88  15 2.88  17 2.88  19 2.88   3 2.90   4 2.90   9 2.90  10 2.90
                            21 2.90  22 2.90  27 2.90  28 2.90
  19  0.833  0.833  0.186-  13 2.88  17 2.88  16 2.88  18 2.88   2 2.90   4 2.90   8 2.90  10 2.90
                            20 2.90  22 2.90  26 2.90  28 2.90
  20  0.000  0.000  0.092-  21 2.88  22 2.88  23 2.88  26 2.88  29 2.88  31 2.88  35 2.88  37 2.88
                            11 2.90  13 2.90  17 2.90  19 2.90
  21  0.333  0.000  0.092-  22 2.88  20 2.88  24 2.88  27 2.88  30 2.88  36 2.88  35 2.88  29 2.88
                            12 2.90  18 2.90  17 2.90  11 2.90
  22  0.667  0.000  0.092-  21 2.88  20 2.88  25 2.88  28 2.88  30 2.88  36 2.88  31 2.88  37 2.88
                            12 2.90  18 2.90  13 2.90  19 2.90
  23  0.000  0.333  0.092-  26 2.88  24 2.88  25 2.88  20 2.88  32 2.88  34 2.88  29 2.88  31 2.88
                            14 2.90  16 2.90  11 2.90  13 2.90
  24  0.333  0.333  0.092-  25 2.88  27 2.88  21 2.88  23 2.88  33 2.88  32 2.88  30 2.88  29 2.88
                            15 2.90  14 2.90  12 2.90  11 2.90
  25  0.667  0.333  0.092-  24 2.88  28 2.88  22 2.88  23 2.88  33 2.88  30 2.88  34 2.88  31 2.88
                            15 2.90  12 2.90  16 2.90  13 2.90
  26  0.000  0.667  0.092-  23 2.88  20 2.88  27 2.88  28 2.88  32 2.88  34 2.88  35 2.88  37 2.88
                            14 2.90  16 2.90  17 2.90  19 2.90
  27  0.333  0.667  0.092-  24 2.88  28 2.88  26 2.88  21 2.88  33 2.88  32 2.88  36 2.88  35 2.88
                            15 2.90  14 2.90  18 2.90  17 2.90
  28  0.667  0.667  0.092-  25 2.88  27 2.88  26 2.88  22 2.88  33 2.88  34 2.88  36 2.88  37 2.88
                            15 2.90  16 2.90  18 2.90  19 2.90
  29  0.167  0.167  0.000-  31 2.88  35 2.88  32 2.88  30 2.88  20 2.88  21 2.88  23 2.88  24 2.88

  30  0.500  0.167  0.000-  36 2.88  31 2.88  33 2.88  29 2.88  21 2.88  22 2.88  24 2.88  25 2.88

  31  0.833  0.167  0.000-  29 2.88  37 2.88  34 2.88  30 2.88  20 2.88  22 2.88  23 2.88  25 2.88

  32  0.167  0.500  0.000-  34 2.88  33 2.88  29 2.88  35 2.88  23 2.88  26 2.88  24 2.88  27 2.88

  33  0.500  0.500  0.000-  30 2.88  32 2.88  34 2.88  36 2.88  24 2.88  25 2.88  27 2.88  28 2.88

  34  0.833  0.500  0.000-  32 2.88  31 2.88  33 2.88  37 2.88  23 2.88  26 2.88  25 2.88  28 2.88

  35  0.167  0.833  0.000-  29 2.88  37 2.88  36 2.88  32 2.88  20 2.88  21 2.88  26 2.88  27 2.88

  36  0.500  0.833  0.000-  30 2.88  33 2.88  35 2.88  37 2.88  21 2.88  22 2.88  27 2.88  28 2.88

  37  0.833  0.833  0.000-  31 2.88  35 2.88  34 2.88  36 2.88  20 2.88  22 2.88  26 2.88  28 2.88

 
  LATTYP: Found a simple tetragonal cell.
 ALAT       =     8.6422590797
 C/A-ratio  =     2.5584745604
  
  Lattice vectors:
  
 A1 = (   8.6422590797,   0.0000000000,   0.0000000000)
 A2 = (   0.0000000000,   8.6422590797,   0.0000000000)
 A3 = (   0.0000000000,   0.0000000000,  22.1110000000)


Analysis of symmetry for initial positions (statically):
=====================================================================
 Subroutine PRICEL returns:
 Original cell was already a primitive cell.
 

 Routine SETGRP: Setting up the symmetry group for a 
 simple tetragonal supercell.


 Subroutine GETGRP returns: Found  2 space group operations
 (whereof  2 operations were pure point group operations)
 out of a pool of 16 trial point group operations.


The static configuration has the point symmetry C_1h.


Analysis of symmetry for dynamics (positions and initial velocities):
=====================================================================
 Subroutine PRICEL returns:
 Original cell was already a primitive cell.
 

 Routine SETGRP: Setting up the symmetry group for a 
 simple tetragonal supercell.


 Subroutine GETGRP returns: Found  2 space group operations
 (whereof  2 operations were pure point group operations)
 out of a pool of 16 trial point group operations.


The dynamic configuration has the point symmetry C_1h.


Analysis of constrained symmetry for selective dynamics:
=====================================================================
 Subroutine PRICEL returns:
 Original cell was already a primitive cell.
 

 Routine SETGRP: Setting up the symmetry group for a 
 simple tetragonal supercell.


 Subroutine GETGRP returns: Found  2 space group operations
 (whereof  2 operations were pure point group operations)
 out of a pool of 16 trial point group operations.


The constrained configuration has the point symmetry C_1h.


Analysis of structural, dynamic, and magnetic symmetry:
=====================================================================
 Subroutine PRICEL returns:
 Original cell was already a primitive cell.
 

 Routine SETGRP: Setting up the symmetry group for a 
 simple tetragonal supercell.


 Subroutine GETGRP returns: Found  2 space group operations
 (whereof  2 operations were pure point group operations)
 out of a pool of 16 trial point group operations.


The magnetic configuration has the point symmetry C_1h.


 Subroutine INISYM returns: Found  2 space group operations
 (whereof  2 operations are pure point group operations),
 and found     1 'primitive' translations

 
 
 KPOINTS: kpoints                                 

Automatic generation of k-mesh.
Space group operators:
 irot       det(A)        alpha          n_x          n_y          n_z        tau_x        tau_y        tau_z
    1     1.000000     0.000001     1.000000     0.000000     0.000000     0.000000     0.000000     0.000000
    2    -1.000000   180.000000     0.707107    -0.707107     0.000000     0.000000     0.000000     0.000000
 
 Subroutine IBZKPT returns following result:
 ===========================================
 
 Found     12 irreducible k-points:
 
 Following reciprocal coordinates:
            Coordinates               Weight
  0.083333  0.083333  0.000000      2.000000
  0.250000  0.083333  0.000000      4.000000
  0.416667  0.083333  0.000000      4.000000
 -0.416667  0.083333  0.000000      4.000000
 -0.250000  0.083333  0.000000      4.000000
 -0.083333  0.083333  0.000000      2.000000
  0.250000  0.250000  0.000000      2.000000
  0.416667  0.250000  0.000000      4.000000
 -0.416667  0.250000  0.000000      4.000000
 -0.250000  0.250000  0.000000      2.000000
  0.416667  0.416667  0.000000      2.000000
 -0.416667  0.416667  0.000000      2.000000
 
 Following cartesian coordinates:
            Coordinates               Weight
  0.009643  0.009643  0.000000      2.000000
  0.028928  0.009643  0.000000      4.000000
  0.048213  0.009643  0.000000      4.000000
 -0.048213  0.009643  0.000000      4.000000
 -0.028928  0.009643  0.000000      4.000000
 -0.009643  0.009643  0.000000      2.000000
  0.028928  0.028928  0.000000      2.000000
  0.048213  0.028928  0.000000      4.000000
 -0.048213  0.028928  0.000000      4.000000
 -0.028928  0.028928  0.000000      2.000000
  0.048213  0.048213  0.000000      2.000000
 -0.048213  0.048213  0.000000      2.000000
 


--------------------------------------------------------------------------------------------------------




 Dimension of arrays:
   k-points           NKPTS =     12   k-points in BZ     NKDIM =     12   number of bands    NBANDS=    242
   number of dos      NEDOS =    301   number of ions     NIONS =     37
   non local maximal  LDIM  =      6   non local SUM 2l+1 LMDIM =     18
   total plane-waves  NPLWV = 451584
   max r-space proj   IRMAX =   4346   max aug-charges    IRDMAX=  13643
   dimension x,y,z NGX =    56 NGY =   56 NGZ =  144
   dimension x,y,z NGXF=   112 NGYF=  112 NGZF=  288
   support grid    NGXF=   112 NGYF=  112 NGZF=  288
   ions per type =               1  36
   NGX,Y,Z   is equivalent  to a cutoff of  10.77, 10.77, 10.83 a.u.
   NGXF,Y,Z  is equivalent  to a cutoff of  21.54, 21.54, 21.65 a.u.

 SYSTEM =  CatImpurities                           
 POSCAR =  Ag                                      

 Startparameter for this run:
   NWRITE =      2    write-flag & timer
   PREC   = accura    normal or accurate (medium, high low for compatibility)
   ISTART =      0    job   : 0-new  1-cont  2-samecut
   ICHARG =      2    charge: 1-file 2-atom 10-const
   ISPIN  =      2    spin polarized calculation?
   LNONCOLLINEAR =      F non collinear calculations
   LSORBIT =      F    spin-orbit coupling
   INIWAV =      1    electr: 0-lowe 1-rand  2-diag
   LASPH  =      F    aspherical Exc in radial PAW
   METAGGA=      F    non-selfconsistent MetaGGA calc.

 Electronic Relaxation 1
   ENCUT  =  400.0 eV  29.40 Ry    5.42 a.u.  14.09 14.09 36.06*2*pi/ulx,y,z
   ENINI  =  400.0     initial cutoff
   ENAUG  =  412.5 eV  augmentation charge cutoff
   NELM   =   1000;   NELMIN=  2; NELMDL= -5     # of ELM steps 
   EDIFF  = 0.1E-03   stopping-criterion for ELM
   LREAL  =      T    real-space projection
   NLSPLINE    = F    spline interpolate recip. space projectors
   LCOMPAT=      F    compatible to vasp.4.4
   GGA_COMPAT  = T    GGA compatible to vasp.4.4-vasp.4.6
   LMAXPAW     = -100 max onsite density
   LMAXMIX     =    2 max onsite mixed and CHGCAR
   VOSKOWN=      0    Vosko Wilk Nusair interpolation
   ROPT   =   -0.00025  -0.00025
 Ionic relaxation
   EDIFFG = -.2E-01   stopping-criterion for IOM
   NSW    =    500    number of steps for IOM
   NBLOCK =      1;   KBLOCK =    500    inner block; outer block 
   IBRION =      3    ionic relax: 0-MD 1-quasi-New 2-CG
   NFREE  =      0    steps in history (QN), initial steepest desc. (CG)
   ISIF   =      2    stress and relaxation
   IWAVPR =     11    prediction:  0-non 1-charg 2-wave 3-comb
   ISYM   =      2    0-nonsym 1-usesym 2-fastsym
   LCORR  =      T    Harris-Foulkes like correction to forces

   POTIM  = 0.0000    time-step for ionic-motion
   TEIN   =    0.0    initial temperature
   TEBEG  =    0.0;   TEEND  =   0.0 temperature during run
   SMASS  =  -3.00    Nose mass-parameter (am)
   estimated Nose-frequenzy (Omega)   =  0.10E-29 period in steps =  0.00 mass=  -0.171E-26a.u.
   SCALEE = 1.0000    scale energy and forces
   NPACO  =    256;   APACO  = 16.0  distance and # of slots for P.C.
   PSTRESS=    0.0 pullay stress

  Mass of Ions in am
   POMASS =  35.45107.87
  Ionic Valenz
   ZVAL   =   7.00 11.00
  Atomic Wigner-Seitz radii
   RWIGS  =  -1.00 -1.00
  virtual crystal weights 
   VCA    =   1.00  1.00
   NELECT =     403.0000    total number of electrons
   NUPDOWN=      -1.0000    fix difference up-down

 DOS related values:
   EMIN   =  10.00;   EMAX   =-10.00  energy-range for DOS
   EFERMI =   0.00
   ISMEAR =     0;   SIGMA  =   0.10  broadening in eV -4-tet -1-fermi 0-gaus

 Electronic relaxation 2 (details)
   IALGO  =     68    algorithm
   LDIAG  =      T    sub-space diagonalisation (order eigenvalues)
   LSUBROT=      F    optimize rotation matrix (better conditioning)
   TURBO    =      0    0=normal 1=particle mesh
   IRESTART =      0    0=no restart 2=restart with 2 vectors
   NREBOOT  =      0    no. of reboots
   NMIN     =      0    reboot dimension
   EREF     =   0.00    reference energy to select bands
   IMIX   =      4    mixing-type and parameters
     AMIX     =   0.40;   BMIX     =  1.00
     AMIX_MAG =   1.60;   BMIX_MAG =  1.00
     AMIN     =   0.10
     WC   =   100.;   INIMIX=   1;  MIXPRE=   1;  MAXMIX= -45

 Intra band minimization:
   WEIMIN = 0.0010     energy-eigenvalue tresh-hold
   EBREAK =  0.10E-06  absolut break condition
   DEPER  =   0.30     relativ break condition  

   TIME   =   0.40     timestep for ELM

  volume/ion in A,a.u.               =      44.63       301.20
  Fermi-wavevector in a.u.,A,eV,Ry     =   1.023031  1.933249 14.239759  1.046593
  Thomas-Fermi vector in A             =   2.156743
 
 Write flags
   LWAVE        =      F    write WAVECAR
   LDOWNSAMPLE  =      F    k-point downsampling of WAVECAR
   LCHARG       =      F    write CHGCAR
   LVTOT        =      F    write LOCPOT, total local potential
   LVHAR        =      F    write LOCPOT, Hartree potential only
   LELF         =      F    write electronic localiz. function (ELF)
   LORBIT       =      0    0 simple, 1 ext, 2 COOP (PROOUT), +10 PAW based schemes


 Dipole corrections
   LMONO  =      F    monopole corrections only (constant potential shift)
   LDIPOL =      T    correct potential (dipole corrections)
   IDIPOL =      3    1-x, 2-y, 3-z, 4-all directions 
   EPSILON=  1.0000000 bulk dielectric constant

 Exchange correlation treatment:
   GGA     =    --    GGA type
   LEXCH   =     8    internal setting for exchange type
   VOSKOWN=      0    Vosko Wilk Nusair interpolation
   LHFCALC =     F    Hartree Fock is set to
   LHFONE  =     F    Hartree Fock one center treatment
   AEXX    =    0.0000 exact exchange contribution

 Linear response parameters
   LEPSILON=     F    determine dielectric tensor
   LRPA    =     F    only Hartree local field effects (RPA)
   LNABLA  =     F    use nabla operator in PAW spheres
   LVEL    =     F    velocity operator in full k-point grid
   LINTERFAST=   F  fast interpolation
   KINTER  =     0    interpolate to denser k-point grid
   CSHIFT  =0.1000    complex shift for real part using Kramers Kronig
   OMEGAMAX=  -1.0    maximum frequency
   DEG_THRESHOLD= 0.2000000E-02 threshold for treating states as degnerate
   RTIME   =   -0.100 relaxation time in fs
  (WPLASMAI=    0.000 imaginary part of plasma frequency in eV, 0.658/RTIME)
   DFIELD  = 0.0000000 0.0000000 0.0000000 field for delta impulse in time
 
 Orbital magnetization related:
   ORBITALMAG=     F  switch on orbital magnetization
   LCHIMAG   =     F  perturbation theory with respect to B field
   DQ        =  0.001000  dq finite difference perturbation B field
   LLRAUG    =     F  two centre corrections for induced B field



--------------------------------------------------------------------------------------------------------


 quickmin algorithm: (dynamic with friction)
   using selective dynamics as specified on POSCAR
 charge density and potential will be updated during run
 spin polarized calculation
 RMM-DIIS sequential band-by-band and
  variant of blocked Davidson during initial phase
 perform sub-space diagonalisation
    before iterative eigenvector-optimisation
 modified Broyden-mixing scheme, WC =      100.0
 initial mixing is a Kerker type mixing with AMIX =  0.4000 and BMIX =      1.0000
 Hartree-type preconditioning will be used
 using additional bands           40
 real space projection scheme for non local part
 use partial core corrections
 calculate Harris-corrections to forces 
   (improved forces if not selfconsistent)
 use gradient corrections 
 use of overlap-Matrix (Vanderbilt PP)
 Gauss-broadening in eV      SIGMA  =   0.10


--------------------------------------------------------------------------------------------------------


  energy-cutoff  :      400.00
  volume of cell :     1651.44
      direct lattice vectors                 reciprocal lattice vectors
     8.642259080  0.000000000  0.000000000     0.115710486  0.000000000  0.000000000
     0.000000000  8.642259080  0.000000000     0.000000000  0.115710486  0.000000000
     0.000000000  0.000000000 22.111000000     0.000000000  0.000000000  0.045226358

  length of vectors
     8.642259080  8.642259080 22.111000000     0.115710486  0.115710486  0.045226358


 
 k-points in units of 2pi/SCALE and weight: kpoints                                 
   0.00964254  0.00964254  0.00000000       0.056
   0.02892762  0.00964254  0.00000000       0.111
   0.04821270  0.00964254  0.00000000       0.111
  -0.04821270  0.00964254  0.00000000       0.111
  -0.02892762  0.00964254  0.00000000       0.111
  -0.00964254  0.00964254  0.00000000       0.056
   0.02892762  0.02892762  0.00000000       0.056
   0.04821270  0.02892762  0.00000000       0.111
  -0.04821270  0.02892762  0.00000000       0.111
  -0.02892762  0.02892762  0.00000000       0.056
   0.04821270  0.04821270  0.00000000       0.056
  -0.04821270  0.04821270  0.00000000       0.056
 
 k-points in reciprocal lattice and weights: kpoints                                 
   0.08333333  0.08333333  0.00000000       0.056
   0.25000000  0.08333333  0.00000000       0.111
   0.41666667  0.08333333  0.00000000       0.111
  -0.41666667  0.08333333  0.00000000       0.111
  -0.25000000  0.08333333  0.00000000       0.111
  -0.08333333  0.08333333  0.00000000       0.056
   0.25000000  0.25000000  0.00000000       0.056
   0.41666667  0.25000000  0.00000000       0.111
  -0.41666667  0.25000000  0.00000000       0.111
  -0.25000000  0.25000000  0.00000000       0.056
   0.41666667  0.41666667  0.00000000       0.056
  -0.41666667  0.41666667  0.00000000       0.056
 
 position of ions in fractional coordinates (direct lattice) 
   0.17000000  0.17000000  0.40986371
   0.00000000  0.00000000  0.27870728
   0.33333333  0.00000000  0.27870728
   0.66666667  0.00000000  0.27870728
   0.00000000  0.33333333  0.27870728
   0.33333333  0.33333333  0.27870728
   0.66666667  0.33333333  0.27870728
   0.00000000  0.66666667  0.27870728
   0.33333333  0.66666667  0.27870728
   0.66666667  0.66666667  0.27870728
   0.16666667  0.16666667  0.18558292
   0.50000000  0.16666667  0.18558292
   0.83333333  0.16666667  0.18558292
   0.16666667  0.50000000  0.18558292
   0.50000000  0.50000000  0.18558292
   0.83333333  0.50000000  0.18558292
   0.16666667  0.83333333  0.18558292
   0.50000000  0.83333333  0.18558292
   0.83333333  0.83333333  0.18558292
   0.00000000  0.00000000  0.09212609
   0.33333333  0.00000000  0.09212609
   0.66666667  0.00000000  0.09212609
   0.00000000  0.33333333  0.09212609
   0.33333333  0.33333333  0.09212609
   0.66666667  0.33333333  0.09212609
   0.00000000  0.66666667  0.09212609
   0.33333333  0.66666667  0.09212609
   0.66666667  0.66666667  0.09212609
   0.16666667  0.16666667  0.00000000
   0.50000000  0.16666667  0.00000000
   0.83333333  0.16666667  0.00000000
   0.16666667  0.50000000  0.00000000
   0.50000000  0.50000000  0.00000000
   0.83333333  0.50000000  0.00000000
   0.16666667  0.83333333  0.00000000
   0.50000000  0.83333333  0.00000000
   0.83333333  0.83333333  0.00000000
 
 position of ions in cartesian coordinates  (Angst):
   1.46918404  1.46918404  9.06249658
   0.00000000  0.00000000  6.16249658
   2.88075303  0.00000000  6.16249658
   5.76150605  0.00000000  6.16249658
   0.00000000  2.88075303  6.16249658
   2.88075303  2.88075303  6.16249658
   5.76150605  2.88075303  6.16249658
   0.00000000  5.76150605  6.16249658
   2.88075303  5.76150605  6.16249658
   5.76150605  5.76150605  6.16249658
   1.44037651  1.44037651  4.10342384
   4.32112954  1.44037651  4.10342384
   7.20188257  1.44037651  4.10342384
   1.44037651  4.32112954  4.10342384
   4.32112954  4.32112954  4.10342384
   7.20188257  4.32112954  4.10342384
   1.44037651  7.20188257  4.10342384
   4.32112954  7.20188257  4.10342384
   7.20188257  7.20188257  4.10342384
   0.00000000  0.00000000  2.03700000
   2.88075303  0.00000000  2.03700000
   5.76150605  0.00000000  2.03700000
   0.00000000  2.88075303  2.03700000
   2.88075303  2.88075303  2.03700000
   5.76150605  2.88075303  2.03700000
   0.00000000  5.76150605  2.03700000
   2.88075303  5.76150605  2.03700000
   5.76150605  5.76150605  2.03700000
   1.44037651  1.44037651  0.00000000
   4.32112954  1.44037651  0.00000000
   7.20188257  1.44037651  0.00000000
   1.44037651  4.32112954  0.00000000
   4.32112954  4.32112954  0.00000000
   7.20188257  4.32112954  0.00000000
   1.44037651  7.20188257  0.00000000
   4.32112954  7.20188257  0.00000000
   7.20188257  7.20188257  0.00000000
 


--------------------------------------------------------------------------------------------------------


 k-point  1 :   0.0833 0.0833 0.0000  plane waves:   29964
 k-point  2 :   0.2500 0.0833 0.0000  plane waves:   29987
 k-point  3 :   0.4167 0.0833 0.0000  plane waves:   29997
 k-point  4 :  -0.4167 0.0833 0.0000  plane waves:   29997
 k-point  5 :  -0.2500 0.0833 0.0000  plane waves:   29987
 k-point  6 :  -0.0833 0.0833 0.0000  plane waves:   29964
 k-point  7 :   0.2500 0.2500 0.0000  plane waves:   30008
 k-point  8 :   0.4167 0.2500 0.0000  plane waves:   30011
 k-point  9 :  -0.4167 0.2500 0.0000  plane waves:   30011
 k-point 10 :  -0.2500 0.2500 0.0000  plane waves:   30008
 k-point 11 :   0.4167 0.4167 0.0000  plane waves:   29990
 k-point 12 :  -0.4167 0.4167 0.0000  plane waves:   29990

 maximum and minimum number of plane-waves per node :       856      815

 maximum number of plane-waves:     30011
 maximum index in each direction: 
   IXMAX=   14   IYMAX=   14   IZMAX=   36
   IXMIN=  -14   IYMIN=  -14   IZMIN=  -36


 real space projection operators:
  total allocation   :      21281.27 KBytes
  max/ min on nodes  :        830.47        329.48


 parallel 3D FFT for wavefunctions:
    minimum data exchange during FFTs selected (reduces bandwidth)
 parallel 3D FFT for charge:
    minimum data exchange during FFTs selected (reduces bandwidth)


 total amount of memory used by VASP MPI-rank0   129987. kBytes
=======================================================================

   base      :      30000. kBytes
   nonlr-proj:       3562. kBytes
   fftplans  :       4587. kBytes
   grid      :      11673. kBytes
   one-center:         62. kBytes
   wavefun   :      80103. kBytes
 
     INWAV:  cpu time    0.0000: real time    0.0003
 Broyden mixing: mesh for mixing (old mesh)
   NGX = 29   NGY = 29   NGZ = 73
  (NGX  =112   NGY  =112   NGZ  =288)
  gives a total of  61393 points

 initial charge density was supplied:
 charge density of overlapping atoms calculated
 number of electron     403.0000000 magnetization       1.0000000
 keeping initial charge density in first step


--------------------------------------------------------------------------------------------------------


 Maximum index for non-local projection operator          317
 Maximum index for augmentation-charges         1296 (set IRDMAX)


--------------------------------------------------------------------------------------------------------


 First call to EWALD:  gamma=   0.150
 Maximum number of real-space cells 4x 4x 2
 Maximum number of reciprocal cells 2x 2x 5

    FEWALD:  cpu time    0.0018: real time    0.0018


--------------------------------------- Iteration      1(   1)  ---------------------------------------


    POTLOK:  cpu time    0.1200: real time    0.1239
    SETDIJ:  cpu time    0.0106: real time    0.0106
     EDDAV:  cpu time   17.4242: real time   17.4314
       DOS:  cpu time    0.0129: real time    0.0129
    --------------------------------------------
      LOOP:  cpu time   17.5678: real time   17.5789

 eigenvalue-minimisations  : 11632
 total energy-change (2. order) : 0.2302036E+04  (-0.1620053E+05)
 number of electron     403.0000000 magnetization       1.0000000
 augmentation part      403.0000000 magnetization       1.0000000

 DIPCOR: dipole corrections for dipol
 direction  3 min pos   190,
 dipolmoment           0.000000      0.000000      0.000042 electrons x Angstroem
 Tr[quadrupol]     -5201.520024

 energy correction for charged system         0.000000 eV
 dipol+quadrupol energy correction           -0.000000 eV
 added-field ion interaction          0.000510 eV  (added to PSCEN)


 Free energy of the ion-electron system (eV)
  ---------------------------------------------------
  alpha Z        PSCENC =       686.67022751
  Ewald energy   TEWEN  =    106713.52577095
  -Hartree energ DENC   =   -145204.84570971
  -exchange      EXHF   =         0.00000000
  -V(xc)+E(xc)   XCENC  =      -364.75513453
  PAW double counting   =     36449.82752988   -34789.87452727
  entropy T*S    EENTRO =        -0.08166958
  eigenvalues    EBANDS =      1060.54939983
  atomic energy  EATOM  =     37751.02038712
  Solvation  Ediel_sol  =         0.00000000
  ---------------------------------------------------
  free energy    TOTEN  =      2302.03627421 eV

  energy without entropy =     2302.11794379  energy(sigma->0) =     2302.07710900


--------------------------------------------------------------------------------------------------------




--------------------------------------- Iteration      1(   2)  ---------------------------------------


     EDDAV:  cpu time   18.3449: real time   18.3564
       DOS:  cpu time    0.0131: real time    0.0131
    --------------------------------------------
      LOOP:  cpu time   18.3579: real time   18.3694

 eigenvalue-minimisations  : 12692
 total energy-change (2. order) :-0.2290024E+04  (-0.2156290E+04)
 number of electron     403.0000000 magnetization       1.0000000
 augmentation part      403.0000000 magnetization       1.0000000

 DIPCOR: dipole corrections for dipol
 direction  3 min pos   190,
 dipolmoment           0.000000      0.000000      0.000042 electrons x Angstroem
 Tr[quadrupol]     -5201.520024

 energy correction for charged system         0.000000 eV
 dipol+quadrupol energy correction           -0.000000 eV
 added-field ion interaction          0.000510 eV  (added to PSCEN)


 Free energy of the ion-electron system (eV)
  ---------------------------------------------------
  alpha Z        PSCENC =       686.67022751
  Ewald energy   TEWEN  =    106713.52577095
  -Hartree energ DENC   =   -145204.84570971
  -exchange      EXHF   =         0.00000000
  -V(xc)+E(xc)   XCENC  =      -364.75513453
  PAW double counting   =     36449.82752988   -34789.87452727
  entropy T*S    EENTRO =        -0.04052074
  eigenvalues    EBANDS =     -1229.51576138
  atomic energy  EATOM  =     37751.02038712
  Solvation  Ediel_sol  =         0.00000000
  ---------------------------------------------------
  free energy    TOTEN  =        12.01226184 eV

  energy without entropy =       12.05278258  energy(sigma->0) =       12.03252221


--------------------------------------------------------------------------------------------------------




--------------------------------------- Iteration      1(   3)  ---------------------------------------


     EDDAV:  cpu time   18.5504: real time   18.5607
       DOS:  cpu time    0.0135: real time    0.0135
    --------------------------------------------
      LOOP:  cpu time   18.5639: real time   18.5742

 eigenvalue-minimisations  : 12758
 total energy-change (2. order) :-0.1112769E+03  (-0.1083167E+03)
 number of electron     403.0000000 magnetization       1.0000000
 augmentation part      403.0000000 magnetization       1.0000000

 DIPCOR: dipole corrections for dipol
 direction  3 min pos   190,
 dipolmoment           0.000000      0.000000      0.000042 electrons x Angstroem
 Tr[quadrupol]     -5201.520024

 energy correction for charged system         0.000000 eV
 dipol+quadrupol energy correction           -0.000000 eV
 added-field ion interaction          0.000510 eV  (added to PSCEN)


 Free energy of the ion-electron system (eV)
  ---------------------------------------------------
  alpha Z        PSCENC =       686.67022751
  Ewald energy   TEWEN  =    106713.52577095
  -Hartree energ DENC   =   -145204.84570971
  -exchange      EXHF   =         0.00000000
  -V(xc)+E(xc)   XCENC  =      -364.75513453
  PAW double counting   =     36449.82752988   -34789.87452727
  entropy T*S    EENTRO =        -0.05104705
  eigenvalues    EBANDS =     -1340.78209242
  atomic energy  EATOM  =     37751.02038712
  Solvation  Ediel_sol  =         0.00000000
  ---------------------------------------------------
  free energy    TOTEN  =       -99.26459550 eV

  energy without entropy =      -99.21354846  energy(sigma->0) =      -99.23907198


--------------------------------------------------------------------------------------------------------




--------------------------------------- Iteration      1(   4)  ---------------------------------------


     EDDAV:  cpu time   18.3519: real time   18.3640
       DOS:  cpu time    0.0138: real time    0.0138
    --------------------------------------------
      LOOP:  cpu time   18.3657: real time   18.3778

 eigenvalue-minimisations  : 12672
 total energy-change (2. order) :-0.2308207E+01  (-0.2301288E+01)
 number of electron     403.0000000 magnetization       1.0000000
 augmentation part      403.0000000 magnetization       1.0000000

 DIPCOR: dipole corrections for dipol
 direction  3 min pos   190,
 dipolmoment           0.000000      0.000000      0.000042 electrons x Angstroem
 Tr[quadrupol]     -5201.520024

 energy correction for charged system         0.000000 eV
 dipol+quadrupol energy correction           -0.000000 eV
 added-field ion interaction          0.000510 eV  (added to PSCEN)


 Free energy of the ion-electron system (eV)
  ---------------------------------------------------
  alpha Z        PSCENC =       686.67022751
  Ewald energy   TEWEN  =    106713.52577095
  -Hartree energ DENC   =   -145204.84570971
  -exchange      EXHF   =         0.00000000
  -V(xc)+E(xc)   XCENC  =      -364.75513453
  PAW double counting   =     36449.82752988   -34789.87452727
  entropy T*S    EENTRO =        -0.05252233
  eigenvalues    EBANDS =     -1343.08882380
  atomic energy  EATOM  =     37751.02038712
  Solvation  Ediel_sol  =         0.00000000
  ---------------------------------------------------
  free energy    TOTEN  =      -101.57280217 eV

  energy without entropy =     -101.52027984  energy(sigma->0) =     -101.54654100


--------------------------------------------------------------------------------------------------------




--------------------------------------- Iteration      1(   5)  ---------------------------------------


     EDDAV:  cpu time   19.3156: real time   19.3411
       DOS:  cpu time    0.0134: real time    0.0134
    CHARGE:  cpu time    0.8347: real time    0.8349
    MIXING:  cpu time    0.0045: real time    0.0045
    --------------------------------------------
      LOOP:  cpu time   20.1683: real time   20.1940

 eigenvalue-minimisations  : 13304
 total energy-change (2. order) :-0.5893570E-01  (-0.5890272E-01)
 number of electron     403.0000043 magnetization       0.8828718
 augmentation part      182.8603579 magnetization       0.8558527

 DIPCOR: dipole corrections for dipol
 direction  3 min pos   190,
 dipolmoment           0.000000      0.000000      0.000042 electrons x Angstroem
 Tr[quadrupol]     -5201.520024

 energy correction for charged system         0.000000 eV
 dipol+quadrupol energy correction           -0.000000 eV
 added-field ion interaction          0.000510 eV  (added to PSCEN)


 Broyden mixing:
  rms(total) = 0.27231E+01    rms(broyden)= 0.27231E+01
  rms(prec ) = 0.28240E+01
  weight for this iteration     100.00

 Free energy of the ion-electron system (eV)
  ---------------------------------------------------
  alpha Z        PSCENC =       686.67022751
  Ewald energy   TEWEN  =    106713.52577095
  -Hartree energ DENC   =   -145204.84570971
  -exchange      EXHF   =         0.00000000
  -V(xc)+E(xc)   XCENC  =      -364.75513453
  PAW double counting   =     36449.82752988   -34789.87452727
  entropy T*S    EENTRO =        -0.05253052
  eigenvalues    EBANDS =     -1343.14775132
  atomic energy  EATOM  =     37751.02038712
  Solvation  Ediel_sol  =         0.00000000
  ---------------------------------------------------
  free energy    TOTEN  =      -101.63173787 eV

  energy without entropy =     -101.57920735  energy(sigma->0) =     -101.60547261


--------------------------------------------------------------------------------------------------------




--------------------------------------- Iteration      1(   6)  ---------------------------------------


    POTLOK:  cpu time    0.1179: real time    0.1218
    SETDIJ:  cpu time    0.0093: real time    0.0093
    EDDIAG:  cpu time    2.3998: real time    2.4003
  RMM-DIIS:  cpu time   11.7588: real time   11.7620
    ORTHCH:  cpu time    0.3215: real time    0.3215
       DOS:  cpu time    0.0131: real time    0.0131
    CHARGE:  cpu time    0.8293: real time    0.8295
    MIXING:  cpu time    0.0030: real time    0.0030
    --------------------------------------------
      LOOP:  cpu time   15.4525: real time   15.4604

 eigenvalue-minimisations  : 11656
 total energy-change (2. order) : 0.9626299E+01  (-0.2965640E+01)
 number of electron     403.0000045 magnetization       0.7601762
 augmentation part      188.0190559 magnetization       0.7110757

 DIPCOR: dipole corrections for dipol
 direction  3 min pos   197,
 dipolmoment           0.000000      0.000000      0.452411 electrons x Angstroem
 Tr[quadrupol]     -5201.841954

 energy correction for charged system         0.000000 eV
 dipol+quadrupol energy correction           -0.011214 eV
 added-field ion interaction         16.232839 eV  (added to PSCEN)


 Broyden mixing:
  rms(total) = 0.17824E+01    rms(broyden)= 0.17824E+01
  rms(prec ) = 0.18030E+01
  weight for this iteration     100.00

 eigenvalues of (default mixing * dielectric matrix)
  average eigenvalue GAMMA=   1.2311
  1.2311

 Free energy of the ion-electron system (eV)
  ---------------------------------------------------
  alpha Z        PSCENC =       702.89134294
  Ewald energy   TEWEN  =    106713.52577095
  -Hartree energ DENC   =   -144895.86430847
  -exchange      EXHF   =         0.00000000
  -V(xc)+E(xc)   XCENC  =      -374.58740622
  PAW double counting   =     37845.71962747   -36217.10911916
  entropy T*S    EENTRO =        -0.04465257
  eigenvalues    EBANDS =     -1617.55708086
  atomic energy  EATOM  =     37751.02038712
  Solvation  Ediel_sol  =         0.00000000
  ---------------------------------------------------
  free energy    TOTEN  =       -92.00543879 eV

  energy without entropy =      -91.96078622  energy(sigma->0) =      -91.98311250


--------------------------------------------------------------------------------------------------------




--------------------------------------- Iteration      1(   7)  ---------------------------------------


    POTLOK:  cpu time    0.1171: real time    0.1218
    SETDIJ:  cpu time    0.0091: real time    0.0091
    EDDIAG:  cpu time    2.3875: real time    2.3877
  RMM-DIIS:  cpu time   11.5457: real time   11.5492
    ORTHCH:  cpu time    0.2984: real time    0.2984
       DOS:  cpu time    0.0130: real time    0.0130
    CHARGE:  cpu time    0.8314: real time    0.8315
    MIXING:  cpu time    0.0030: real time    0.0030
    --------------------------------------------
      LOOP:  cpu time   15.2052: real time   15.2139

 eigenvalue-minimisations  : 11617
 total energy-change (2. order) : 0.1077454E+00  (-0.2361597E+00)
 number of electron     403.0000046 magnetization       0.6254745
 augmentation part      188.6437560 magnetization       0.5299936

 DIPCOR: dipole corrections for dipol
 direction  3 min pos   194,
 dipolmoment           0.000000      0.000000     -0.093133 electrons x Angstroem
 Tr[quadrupol]     -5201.216646

 energy correction for charged system         0.000000 eV
 dipol+quadrupol energy correction           -0.000475 eV
 added-field ion interaction         -2.394452 eV  (added to PSCEN)


 Broyden mixing:
  rms(total) = 0.99537E+00    rms(broyden)= 0.99536E+00
  rms(prec ) = 0.10567E+01
  weight for this iteration     100.00

 eigenvalues of (default mixing * dielectric matrix)
  average eigenvalue GAMMA=   1.6534
  1.0580  2.2488

 Free energy of the ion-electron system (eV)
  ---------------------------------------------------
  alpha Z        PSCENC =       684.27479034
  Ewald energy   TEWEN  =    106713.52577095
  -Hartree energ DENC   =   -144852.46459080
  -exchange      EXHF   =         0.00000000
  -V(xc)+E(xc)   XCENC  =      -376.42249235
  PAW double counting   =     38969.36255300   -37365.30185771
  entropy T*S    EENTRO =        -0.03910452
  eigenvalues    EBANDS =     -1615.85314941
  atomic energy  EATOM  =     37751.02038712
  Solvation  Ediel_sol  =         0.00000000
  ---------------------------------------------------
  free energy    TOTEN  =       -91.89769337 eV

  energy without entropy =      -91.85858885  energy(sigma->0) =      -91.87814111


--------------------------------------------------------------------------------------------------------




--------------------------------------- Iteration      1(   8)  ---------------------------------------


    POTLOK:  cpu time    0.1093: real time    0.1135
    SETDIJ:  cpu time    0.0091: real time    0.0091
    EDDIAG:  cpu time    2.3957: real time    2.3961
  RMM-DIIS:  cpu time   11.9174: real time   11.9212
    ORTHCH:  cpu time    0.2983: real time    0.2986
       DOS:  cpu time    0.0141: real time    0.0141
    CHARGE:  cpu time    0.8284: real time    0.8285
    MIXING:  cpu time    0.0032: real time    0.0032
    --------------------------------------------
      LOOP:  cpu time   15.5755: real time   15.5843

 eigenvalue-minimisations  : 11653
 total energy-change (2. order) :-0.4623655E+01  (-0.3782989E+00)
 number of electron     403.0000048 magnetization       0.5896277
 augmentation part      188.9588210 magnetization       0.5002129

 DIPCOR: dipole corrections for dipol
 direction  3 min pos   199,
 dipolmoment           0.000000      0.000000      1.347462 electrons x Angstroem
 Tr[quadrupol]     -5203.746086

 energy correction for charged system         0.000000 eV
 dipol+quadrupol energy correction           -0.099474 eV
 added-field ion interaction         57.484348 eV  (added to PSCEN)


 Broyden mixing:
  rms(total) = 0.14905E+01    rms(broyden)= 0.14905E+01
  rms(prec ) = 0.24095E+01
  weight for this iteration     100.00

 eigenvalues of (default mixing * dielectric matrix)
  average eigenvalue GAMMA=   1.1751
  2.2985  1.0819  0.1449

 Free energy of the ion-electron system (eV)
  ---------------------------------------------------
  alpha Z        PSCENC =       744.05459043
  Ewald energy   TEWEN  =    106713.52577095
  -Hartree energ DENC   =   -144832.87656767
  -exchange      EXHF   =         0.00000000
  -V(xc)+E(xc)   XCENC  =      -377.67672427
  PAW double counting   =     39781.70805967   -38195.77976465
  entropy T*S    EENTRO =        -0.08414819
  eigenvalues    EBANDS =     -1680.41295221
  atomic energy  EATOM  =     37751.02038712
  Solvation  Ediel_sol  =         0.00000000
  ---------------------------------------------------
  free energy    TOTEN  =       -96.52134881 eV

  energy without entropy =      -96.43720063  energy(sigma->0) =      -96.47927472


--------------------------------------------------------------------------------------------------------




--------------------------------------- Iteration      1(   9)  ---------------------------------------


    POTLOK:  cpu time    0.1094: real time    0.1140
    SETDIJ:  cpu time    0.0095: real time    0.0095
    EDDIAG:  cpu time    2.3846: real time    2.3850
  RMM-DIIS:  cpu time   11.6161: real time   11.6215
    ORTHCH:  cpu time    0.2982: real time    0.2982
       DOS:  cpu time    0.0130: real time    0.0130
    CHARGE:  cpu time    0.8329: real time    0.8330
    MIXING:  cpu time    0.0032: real time    0.0032
    --------------------------------------------
      LOOP:  cpu time   15.2669: real time   15.2774

 eigenvalue-minimisations  : 11660
 total energy-change (2. order) : 0.3773134E+01  (-0.2555183E+00)
 number of electron     403.0000045 magnetization       0.5249194
 augmentation part      188.4015497 magnetization       0.4433331

 DIPCOR: dipole corrections for dipol
 direction  3 min pos   200,
 dipolmoment           0.000000      0.000000      0.437189 electrons x Angstroem
 Tr[quadrupol]     -5204.339005

 energy correction for charged system         0.000000 eV
 dipol+quadrupol energy correction           -0.010472 eV
 added-field ion interaction         20.133188 eV  (added to PSCEN)


 Broyden mixing:
  rms(total) = 0.34879E+00    rms(broyden)= 0.34866E+00
  rms(prec ) = 0.44844E+00
  weight for this iteration     100.00

 eigenvalues of (default mixing * dielectric matrix)
  average eigenvalue GAMMA=   1.0667
  2.4504  1.0607  0.5510  0.2048

 Free energy of the ion-electron system (eV)
  ---------------------------------------------------
  alpha Z        PSCENC =       706.79243397
  Ewald energy   TEWEN  =    106713.52577095
  -Hartree energ DENC   =   -144885.61532524
  -exchange      EXHF   =         0.00000000
  -V(xc)+E(xc)   XCENC  =      -378.40556499
  PAW double counting   =     39909.24880536   -38327.12529625
  entropy T*S    EENTRO =        -0.04400274
  eigenvalues    EBANDS =     -1582.14542266
  atomic energy  EATOM  =     37751.02038712
  Solvation  Ediel_sol  =         0.00000000
  ---------------------------------------------------
  free energy    TOTEN  =       -92.74821449 eV

  energy without entropy =      -92.70421175  energy(sigma->0) =      -92.72621312


--------------------------------------------------------------------------------------------------------




--------------------------------------- Iteration      1(  10)  ---------------------------------------


    POTLOK:  cpu time    0.1096: real time    0.1140
    SETDIJ:  cpu time    0.0090: real time    0.0090
    EDDIAG:  cpu time    2.3934: real time    2.3938
  RMM-DIIS:  cpu time   11.7591: real time   11.7735
    ORTHCH:  cpu time    0.2985: real time    0.2985
       DOS:  cpu time    0.0130: real time    0.0130
    CHARGE:  cpu time    0.8240: real time    0.8241
    MIXING:  cpu time    0.0051: real time    0.0051
    --------------------------------------------
      LOOP:  cpu time   15.4117: real time   15.4311

 eigenvalue-minimisations  : 11659
 total energy-change (2. order) : 0.5222011E+00  (-0.4242724E-01)
 number of electron     403.0000045 magnetization       0.4574863
 augmentation part      188.5306747 magnetization       0.3864401

 DIPCOR: dipole corrections for dipol
 direction  3 min pos   198,
 dipolmoment           0.000000      0.000000      0.284732 electrons x Angstroem
 Tr[quadrupol]     -5202.853441

 energy correction for charged system         0.000000 eV
 dipol+quadrupol energy correction           -0.004442 eV
 added-field ion interaction         11.181682 eV  (added to PSCEN)


 Broyden mixing:
  rms(total) = 0.16086E+00    rms(broyden)= 0.16085E+00
  rms(prec ) = 0.20904E+00
  weight for this iteration     100.00

 eigenvalues of (default mixing * dielectric matrix)
  average eigenvalue GAMMA=   1.1009
  2.4953  1.1185  0.9841  0.7042  0.2025

 Free energy of the ion-electron system (eV)
  ---------------------------------------------------
  alpha Z        PSCENC =       697.84695756
  Ewald energy   TEWEN  =    106713.52577095
  -Hartree energ DENC   =   -144855.39328437
  -exchange      EXHF   =         0.00000000
  -V(xc)+E(xc)   XCENC  =      -378.48803629
  PAW double counting   =     40057.46406485   -38479.05666226
  entropy T*S    EENTRO =        -0.03701420
  eigenvalues    EBANDS =     -1599.10819677
  atomic energy  EATOM  =     37751.02038712
  Solvation  Ediel_sol  =         0.00000000
  ---------------------------------------------------
  free energy    TOTEN  =       -92.22601340 eV

  energy without entropy =      -92.18899920  energy(sigma->0) =      -92.20750630


--------------------------------------------------------------------------------------------------------




--------------------------------------- Iteration      1(  11)  ---------------------------------------


    POTLOK:  cpu time    0.1095: real time    0.1140
    SETDIJ:  cpu time    0.0090: real time    0.0090
    EDDIAG:  cpu time    2.3864: real time    2.3868
  RMM-DIIS:  cpu time   11.5947: real time   11.6009
    ORTHCH:  cpu time    0.2981: real time    0.2982
       DOS:  cpu time    0.0131: real time    0.0131
    CHARGE:  cpu time    0.8310: real time    0.8310
    MIXING:  cpu time    0.0033: real time    0.0033
    --------------------------------------------
      LOOP:  cpu time   15.2451: real time   15.2564

 eigenvalue-minimisations  : 11641
 total energy-change (2. order) : 0.3151250E-01  (-0.1175785E-01)
 number of electron     403.0000046 magnetization       0.4238470
 augmentation part      188.5570351 magnetization       0.3683374

 DIPCOR: dipole corrections for dipol
 direction  3 min pos   196,
 dipolmoment           0.000000      0.000000      0.353155 electrons x Angstroem
 Tr[quadrupol]     -5202.470372

 energy correction for charged system         0.000000 eV
 dipol+quadrupol energy correction           -0.006833 eV
 added-field ion interaction         11.474174 eV  (added to PSCEN)


 Broyden mixing:
  rms(total) = 0.87354E-01    rms(broyden)= 0.87352E-01
  rms(prec ) = 0.12642E+00
  weight for this iteration     100.00

 eigenvalues of (default mixing * dielectric matrix)
  average eigenvalue GAMMA=   1.0404
  2.4802  0.2021  1.2016  0.8716  0.8716  0.6155

 Free energy of the ion-electron system (eV)
  ---------------------------------------------------
  alpha Z        PSCENC =       698.13705866
  Ewald energy   TEWEN  =    106713.52577095
  -Hartree energ DENC   =   -144849.44700715
  -exchange      EXHF   =         0.00000000
  -V(xc)+E(xc)   XCENC  =      -378.49500471
  PAW double counting   =     40052.77767381   -38474.54619566
  entropy T*S    EENTRO =        -0.03660796
  eigenvalues    EBANDS =     -1605.13057596
  atomic energy  EATOM  =     37751.02038712
  Solvation  Ediel_sol  =         0.00000000
  ---------------------------------------------------
  free energy    TOTEN  =       -92.19450090 eV

  energy without entropy =      -92.15789294  energy(sigma->0) =      -92.17619692


--------------------------------------------------------------------------------------------------------




--------------------------------------- Iteration      1(  12)  ---------------------------------------


    POTLOK:  cpu time    0.1096: real time    0.1139
    SETDIJ:  cpu time    0.0094: real time    0.0094
    EDDIAG:  cpu time    2.3924: real time    2.3928
  RMM-DIIS:  cpu time   11.6114: real time   11.6231
    ORTHCH:  cpu time    0.2987: real time    0.2987
       DOS:  cpu time    0.0131: real time    0.0131
    CHARGE:  cpu time    0.8263: real time    0.8265
    MIXING:  cpu time    0.0036: real time    0.0036
    --------------------------------------------
      LOOP:  cpu time   15.2646: real time   15.2811

 eigenvalue-minimisations  : 11338
 total energy-change (2. order) :-0.1599775E-01  (-0.1522352E-02)
 number of electron     403.0000046 magnetization       0.3923209
 augmentation part      188.5693249 magnetization       0.3422428

 DIPCOR: dipole corrections for dipol
 direction  3 min pos   195,
 dipolmoment           0.000000      0.000000      0.389683 electrons x Angstroem
 Tr[quadrupol]     -5202.198988

 energy correction for charged system         0.000000 eV
 dipol+quadrupol energy correction           -0.008320 eV
 added-field ion interaction         11.339891 eV  (added to PSCEN)


 Broyden mixing:
  rms(total) = 0.68164E-01    rms(broyden)= 0.68164E-01
  rms(prec ) = 0.10087E+00
  weight for this iteration     100.00

 eigenvalues of (default mixing * dielectric matrix)
  average eigenvalue GAMMA=   1.0127
  2.4762  1.0235  1.0235  1.1183  0.2023  0.6225  0.6225

 Free energy of the ion-electron system (eV)
  ---------------------------------------------------
  alpha Z        PSCENC =       698.00128834
  Ewald energy   TEWEN  =    106713.52577095
  -Hartree energ DENC   =   -144844.53240117
  -exchange      EXHF   =         0.00000000
  -V(xc)+E(xc)   XCENC  =      -378.51630288
  PAW double counting   =     40044.33737726   -38465.93927565
  entropy T*S    EENTRO =        -0.03662321
  eigenvalues    EBANDS =     -1610.07071941
  atomic energy  EATOM  =     37751.02038712
  Solvation  Ediel_sol  =         0.00000000
  ---------------------------------------------------
  free energy    TOTEN  =       -92.21049865 eV

  energy without entropy =      -92.17387544  energy(sigma->0) =      -92.19218705


--------------------------------------------------------------------------------------------------------




--------------------------------------- Iteration      1(  13)  ---------------------------------------


    POTLOK:  cpu time    0.1096: real time    0.1144
    SETDIJ:  cpu time    0.0094: real time    0.0094
    EDDIAG:  cpu time    2.3840: real time    2.3844
  RMM-DIIS:  cpu time    9.8445: real time    9.8484
    ORTHCH:  cpu time    0.2979: real time    0.2979
       DOS:  cpu time    0.0131: real time    0.0131
    CHARGE:  cpu time    0.8287: real time    0.8288
    MIXING:  cpu time    0.0036: real time    0.0036
    --------------------------------------------
      LOOP:  cpu time   13.4907: real time   13.4999

 eigenvalue-minimisations  :  9710
 total energy-change (2. order) :-0.2704198E-01  (-0.5410138E-03)
 number of electron     403.0000046 magnetization       0.2521191
 augmentation part      188.5751689 magnetization       0.2065130

 DIPCOR: dipole corrections for dipol
 direction  3 min pos   194,
 dipolmoment           0.000000      0.000000      0.427428 electrons x Angstroem
 Tr[quadrupol]     -5201.963125

 energy correction for charged system         0.000000 eV
 dipol+quadrupol energy correction           -0.010009 eV
 added-field ion interaction         10.989177 eV  (added to PSCEN)


 Broyden mixing:
  rms(total) = 0.56707E-01    rms(broyden)= 0.56707E-01
  rms(prec ) = 0.83852E-01
  weight for this iteration     100.00

 eigenvalues of (default mixing * dielectric matrix)
  average eigenvalue GAMMA=   1.2125
  2.4879  1.9086  1.9086  1.1003  0.2022  0.7427  0.7427  0.6066

 Free energy of the ion-electron system (eV)
  ---------------------------------------------------
  alpha Z        PSCENC =       697.64888470
  Ewald energy   TEWEN  =    106713.52577095
  -Hartree energ DENC   =   -144840.51124417
  -exchange      EXHF   =         0.00000000
  -V(xc)+E(xc)   XCENC  =      -378.55387928
  PAW double counting   =     40040.54140718   -38462.05996400
  entropy T*S    EENTRO =        -0.03673568
  eigenvalues    EBANDS =     -1613.81216746
  atomic energy  EATOM  =     37751.02038712
  Solvation  Ediel_sol  =         0.00000000
  ---------------------------------------------------
  free energy    TOTEN  =       -92.23754063 eV

  energy without entropy =      -92.20080495  energy(sigma->0) =      -92.21917279


--------------------------------------------------------------------------------------------------------




--------------------------------------- Iteration      1(  14)  ---------------------------------------


    POTLOK:  cpu time    0.1097: real time    0.1136
    SETDIJ:  cpu time    0.0092: real time    0.0092
    EDDIAG:  cpu time    2.3992: real time    2.3996
  RMM-DIIS:  cpu time   11.7813: real time   11.7847
    ORTHCH:  cpu time    0.2973: real time    0.2976
       DOS:  cpu time    0.0134: real time    0.0134
    CHARGE:  cpu time    0.8267: real time    0.8268
    MIXING:  cpu time    0.0038: real time    0.0038
    --------------------------------------------
      LOOP:  cpu time   15.4406: real time   15.4487

 eigenvalue-minimisations  : 11647
 total energy-change (2. order) :-0.1612797E+00  (-0.4376792E-02)
 number of electron     403.0000046 magnetization       0.1955402
 augmentation part      188.6007928 magnetization       0.1680143

 DIPCOR: dipole corrections for dipol
 direction  3 min pos   192,
 dipolmoment           0.000000      0.000000      0.581037 electrons x Angstroem
 Tr[quadrupol]     -5201.010334

 energy correction for charged system         0.000000 eV
 dipol+quadrupol energy correction           -0.018496 eV
 added-field ion interaction         10.998787 eV  (added to PSCEN)


 Broyden mixing:
  rms(total) = 0.22970E-01    rms(broyden)= 0.22966E-01
  rms(prec ) = 0.28072E-01
  weight for this iteration     100.00

 eigenvalues of (default mixing * dielectric matrix)
  average eigenvalue GAMMA=   1.1808
  2.4702  2.0151  2.0151  0.2022  1.1055  0.8142  0.8142  0.6009  0.5897

 Free energy of the ion-electron system (eV)
  ---------------------------------------------------
  alpha Z        PSCENC =       697.65000797
  Ewald energy   TEWEN  =    106713.52577095
  -Hartree energ DENC   =   -144822.54021427
  -exchange      EXHF   =         0.00000000
  -V(xc)+E(xc)   XCENC  =      -378.72227843
  PAW double counting   =     40026.18386878   -38447.36669365
  entropy T*S    EENTRO =        -0.03784418
  eigenvalues    EBANDS =     -1632.11182458
  atomic energy  EATOM  =     37751.02038712
  Solvation  Ediel_sol  =         0.00000000
  ---------------------------------------------------
  free energy    TOTEN  =       -92.39882028 eV

  energy without entropy =      -92.36097611  energy(sigma->0) =      -92.37989820


--------------------------------------------------------------------------------------------------------




--------------------------------------- Iteration      1(  15)  ---------------------------------------


    POTLOK:  cpu time    0.1133: real time    0.1135
    SETDIJ:  cpu time    0.0097: real time    0.0097
    EDDIAG:  cpu time    2.3816: real time    2.3822
  RMM-DIIS:  cpu time   10.8303: real time   10.8350
    ORTHCH:  cpu time    0.2988: real time    0.2988
       DOS:  cpu time    0.0138: real time    0.0138
    CHARGE:  cpu time    0.8326: real time    0.8328
    MIXING:  cpu time    0.0054: real time    0.0054
    --------------------------------------------
      LOOP:  cpu time   14.4853: real time   14.4910

 eigenvalue-minimisations  : 10784
 total energy-change (2. order) :-0.7021119E-01  (-0.1072634E-02)
 number of electron     403.0000046 magnetization       0.1190719
 augmentation part      188.6118787 magnetization       0.0986753

 DIPCOR: dipole corrections for dipol
 direction  3 min pos   191,
 dipolmoment           0.000000      0.000000      0.640117 electrons x Angstroem
 Tr[quadrupol]     -5200.606184

 energy correction for charged system         0.000000 eV
 dipol+quadrupol energy correction           -0.022449 eV
 added-field ion interaction          9.946994 eV  (added to PSCEN)


 Broyden mixing:
  rms(total) = 0.31578E-01    rms(broyden)= 0.31577E-01
  rms(prec ) = 0.42799E-01
  weight for this iteration     100.00

 eigenvalues of (default mixing * dielectric matrix)
  average eigenvalue GAMMA=   1.4160
  2.8063  2.8063  2.3496  1.8217  0.2022  1.0807  0.9241  0.9241  0.6222  0.6222

 Free energy of the ion-electron system (eV)
  ---------------------------------------------------
  alpha Z        PSCENC =       696.59426266
  Ewald energy   TEWEN  =    106713.52577095
  -Hartree energ DENC   =   -144816.09691990
  -exchange      EXHF   =         0.00000000
  -V(xc)+E(xc)   XCENC  =      -378.78020936
  PAW double counting   =     40020.14136245   -38441.20611043
  entropy T*S    EENTRO =        -0.03870676
  eigenvalues    EBANDS =     -1637.62886821
  atomic energy  EATOM  =     37751.02038712
  Solvation  Ediel_sol  =         0.00000000
  ---------------------------------------------------
  free energy    TOTEN  =       -92.46903147 eV

  energy without entropy =      -92.43032471  energy(sigma->0) =      -92.44967809


--------------------------------------------------------------------------------------------------------




--------------------------------------- Iteration      1(  16)  ---------------------------------------


    POTLOK:  cpu time    0.1096: real time    0.1139
    SETDIJ:  cpu time    0.0090: real time    0.0090
    EDDIAG:  cpu time    2.3924: real time    2.3929
  RMM-DIIS:  cpu time   10.3058: real time   10.3087
    ORTHCH:  cpu time    0.3590: real time    0.3590
       DOS:  cpu time    0.0137: real time    0.0137
    CHARGE:  cpu time    0.9363: real time    0.9364
    MIXING:  cpu time    0.0039: real time    0.0039
    --------------------------------------------
      LOOP:  cpu time   14.1297: real time   14.1376

 eigenvalue-minimisations  : 10101
 total energy-change (2. order) :-0.5264878E-01  (-0.9927011E-03)
 number of electron     403.0000046 magnetization       0.0884895
 augmentation part      188.6069648 magnetization       0.0767908

 DIPCOR: dipole corrections for dipol
 direction  3 min pos   191,
 dipolmoment           0.000000      0.000000      0.710742 electrons x Angstroem
 Tr[quadrupol]     -5200.380527

 energy correction for charged system         0.000000 eV
 dipol+quadrupol energy correction           -0.027676 eV
 added-field ion interaction         11.044461 eV  (added to PSCEN)


 Broyden mixing:
  rms(total) = 0.14853E-01    rms(broyden)= 0.14853E-01
  rms(prec ) = 0.25031E-01
  weight for this iteration     100.00

 eigenvalues of (default mixing * dielectric matrix)
  average eigenvalue GAMMA=   1.4363
  4.2376  2.4951  1.9737  1.9737  0.2022  1.0879  1.0529  0.7701  0.7701  0.6181
  0.6181

 Free energy of the ion-electron system (eV)
  ---------------------------------------------------
  alpha Z        PSCENC =       697.68650280
  Ewald energy   TEWEN  =    106713.52577095
  -Hartree energ DENC   =   -144811.88847500
  -exchange      EXHF   =         0.00000000
  -V(xc)+E(xc)   XCENC  =      -378.89724282
  PAW double counting   =     40019.31808545   -38440.42377479
  entropy T*S    EENTRO =        -0.03836562
  eigenvalues    EBANDS =     -1642.82456835
  atomic energy  EATOM  =     37751.02038712
  Solvation  Ediel_sol  =         0.00000000
  ---------------------------------------------------
  free energy    TOTEN  =       -92.52168025 eV

  energy without entropy =      -92.48331464  energy(sigma->0) =      -92.50249745


--------------------------------------------------------------------------------------------------------




--------------------------------------- Iteration      1(  17)  ---------------------------------------


    POTLOK:  cpu time    0.1095: real time    0.1135
    SETDIJ:  cpu time    0.0091: real time    0.0091
    EDDIAG:  cpu time    2.3826: real time    2.3832
  RMM-DIIS:  cpu time    8.3328: real time    8.3365
    ORTHCH:  cpu time    0.2972: real time    0.2972
       DOS:  cpu time    0.0135: real time    0.0135
    CHARGE:  cpu time    0.8307: real time    0.8308
    MIXING:  cpu time    0.0040: real time    0.0040
    --------------------------------------------
      LOOP:  cpu time   11.9795: real time   11.9878

 eigenvalue-minimisations  :  8068
 total energy-change (2. order) :-0.1523969E-01  (-0.1774939E-03)
 number of electron     403.0000046 magnetization       0.0735496
 augmentation part      188.6122065 magnetization       0.0649161

 DIPCOR: dipole corrections for dipol
 direction  3 min pos   191,
 dipolmoment           0.000000      0.000000      0.737066 electrons x Angstroem
 Tr[quadrupol]     -5200.213585

 energy correction for charged system         0.000000 eV
 dipol+quadrupol energy correction           -0.029764 eV
 added-field ion interaction         11.453512 eV  (added to PSCEN)


 Broyden mixing:
  rms(total) = 0.23762E-01    rms(broyden)= 0.23762E-01
  rms(prec ) = 0.37481E-01
  weight for this iteration     100.00

 eigenvalues of (default mixing * dielectric matrix)
  average eigenvalue GAMMA=   1.4439
  4.3546  2.4903  2.1469  2.1469  0.2022  1.1068  0.9900  0.9900  0.8352  0.8352
  0.6146  0.6146

 Free energy of the ion-electron system (eV)
  ---------------------------------------------------
  alpha Z        PSCENC =       698.09346574
  Ewald energy   TEWEN  =    106713.52577095
  -Hartree energ DENC   =   -144808.62103506
  -exchange      EXHF   =         0.00000000
  -V(xc)+E(xc)   XCENC  =      -378.89743604
  PAW double counting   =     40017.91744958   -38438.98522991
  entropy T*S    EENTRO =        -0.03892266
  eigenvalues    EBANDS =     -1646.55136966
  atomic energy  EATOM  =     37751.02038712
  Solvation  Ediel_sol  =         0.00000000
  ---------------------------------------------------
  free energy    TOTEN  =       -92.53691995 eV

  energy without entropy =      -92.49799728  energy(sigma->0) =      -92.51745861


--------------------------------------------------------------------------------------------------------




--------------------------------------- Iteration      1(  18)  ---------------------------------------


    POTLOK:  cpu time    0.1130: real time    0.1132
    SETDIJ:  cpu time    0.0089: real time    0.0089
    EDDIAG:  cpu time    2.3899: real time    2.3903
  RMM-DIIS:  cpu time    7.7244: real time    7.7256
    ORTHCH:  cpu time    0.2977: real time    0.2979
       DOS:  cpu time    0.0135: real time    0.0135
    CHARGE:  cpu time    0.8242: real time    0.8243
    MIXING:  cpu time    0.0042: real time    0.0042
    --------------------------------------------
      LOOP:  cpu time   11.3758: real time   11.3780

 eigenvalue-minimisations  :  7453
 total energy-change (2. order) :-0.2381923E-02  (-0.7828274E-04)
 number of electron     403.0000046 magnetization       0.0513316
 augmentation part      188.6084081 magnetization       0.0440561

 DIPCOR: dipole corrections for dipol
 direction  3 min pos   191,
 dipolmoment           0.000000      0.000000      0.744023 electrons x Angstroem
 Tr[quadrupol]     -5200.242633

 energy correction for charged system         0.000000 eV
 dipol+quadrupol energy correction           -0.030329 eV
 added-field ion interaction         11.561617 eV  (added to PSCEN)


 Broyden mixing:
  rms(total) = 0.15956E-01    rms(broyden)= 0.15956E-01
  rms(prec ) = 0.25334E-01
  weight for this iteration     100.00

 eigenvalues of (default mixing * dielectric matrix)
  average eigenvalue GAMMA=   1.5652
  5.0265  2.6880  2.6880  2.5155  1.2800  1.2800  0.2022  1.1200  0.8047  0.8047
  0.7164  0.6106  0.6106

 Free energy of the ion-electron system (eV)
  ---------------------------------------------------
  alpha Z        PSCENC =       698.20100563
  Ewald energy   TEWEN  =    106713.52577095
  -Hartree energ DENC   =   -144810.33004424
  -exchange      EXHF   =         0.00000000
  -V(xc)+E(xc)   XCENC  =      -378.90647133
  PAW double counting   =     40017.90670783   -38439.00866060
  entropy T*S    EENTRO =        -0.03854853
  eigenvalues    EBANDS =     -1644.90944871
  atomic energy  EATOM  =     37751.02038712
  Solvation  Ediel_sol  =         0.00000000
  ---------------------------------------------------
  free energy    TOTEN  =       -92.53930187 eV

  energy without entropy =      -92.50075334  energy(sigma->0) =      -92.52002761


--------------------------------------------------------------------------------------------------------




--------------------------------------- Iteration      1(  19)  ---------------------------------------


    POTLOK:  cpu time    0.1103: real time    0.1146
    SETDIJ:  cpu time    0.0092: real time    0.0092
    EDDIAG:  cpu time    2.3950: real time    2.3963
  RMM-DIIS:  cpu time    7.7907: real time    7.7921
    ORTHCH:  cpu time    0.2975: real time    0.2975
       DOS:  cpu time    0.0137: real time    0.0137
    CHARGE:  cpu time    0.8317: real time    0.8321
    MIXING:  cpu time    0.0043: real time    0.0043
    --------------------------------------------
      LOOP:  cpu time   11.4524: real time   11.4597

 eigenvalue-minimisations  :  7357
 total energy-change (2. order) :-0.4657117E-02  (-0.1001386E-03)
 number of electron     403.0000046 magnetization       0.0294642
 augmentation part      188.6052839 magnetization       0.0242151

 DIPCOR: dipole corrections for dipol
 direction  3 min pos   191,
 dipolmoment           0.000000      0.000000      0.758428 electrons x Angstroem
 Tr[quadrupol]     -5200.218887

 energy correction for charged system         0.000000 eV
 dipol+quadrupol energy correction           -0.031514 eV
 added-field ion interaction         11.785464 eV  (added to PSCEN)


 Broyden mixing:
  rms(total) = 0.83455E-02    rms(broyden)= 0.83453E-02
  rms(prec ) = 0.13547E-01
  weight for this iteration     100.00

 eigenvalues of (default mixing * dielectric matrix)
  average eigenvalue GAMMA=   1.5934
  5.8543  2.7487  2.7487  2.4823  1.3632  1.3632  0.2022  1.1120  0.8464  0.8464
  0.8267  0.6106  0.6106  0.6925

 Free energy of the ion-electron system (eV)
  ---------------------------------------------------
  alpha Z        PSCENC =       698.42366669
  Ewald energy   TEWEN  =    106713.52577095
  -Hartree energ DENC   =   -144810.78779681
  -exchange      EXHF   =         0.00000000
  -V(xc)+E(xc)   XCENC  =      -378.92211747
  PAW double counting   =     40018.74658574   -38439.87848445
  entropy T*S    EENTRO =        -0.03826092
  eigenvalues    EBANDS =     -1644.63370982
  atomic energy  EATOM  =     37751.02038712
  Solvation  Ediel_sol  =         0.00000000
[...]
    148      -2.9699      1.00000
    149      -2.9672      1.00000
    150      -2.9522      1.00000
    151      -2.9366      1.00000
    152      -2.9285      1.00000
    153      -2.9157      1.00000
    154      -2.8726      1.00000
    155      -2.8711      1.00000
    156      -2.8534      1.00000
    157      -2.8460      1.00000
    158      -2.8349      1.00000
    159      -2.8071      1.00000
    160      -2.7722      1.00000
    161      -2.7604      1.00000
    162      -2.7588      1.00000
    163      -2.7480      1.00000
    164      -2.7349      1.00000
    165      -2.7250      1.00000
    166      -2.7045      1.00000
    167      -2.7039      1.00000
    168      -2.6677      1.00000
    169      -2.6552      1.00000
    170      -2.5724      1.00000
    171      -2.5714      1.00000
    172      -2.5469      1.00000
    173      -2.5323      1.00000
    174      -2.5115      1.00000
    175      -2.5101      1.00000
    176      -2.4992      1.00000
    177      -2.4943      1.00000
    178      -2.4875      1.00000
    179      -2.4834      1.00000
    180      -2.4751      1.00000
    181      -2.4572      1.00000
    182      -2.4510      1.00000
    183      -2.3536      1.00000
    184      -2.3491      1.00000
    185      -2.3403      1.00000
    186      -2.3112      1.00000
    187      -2.1720      1.00000
    188      -2.0672      1.00000
    189      -2.0396      1.00000
    190      -1.9027      1.00000
    191      -1.8983      1.00000
    192      -1.5846      1.00000
    193      -0.9053      1.00000
    194      -0.5274      1.00000
    195      -0.4826      1.00000
    196      -0.0862      1.00000
    197      -0.0537      1.00000
    198       0.0076      1.00000
    199       0.2837      0.99888
    200       0.3001      0.99763
    201       0.7705      0.00006
    202       0.8418      0.00000
    203       1.1810      0.00000
    204       1.2062      0.00000
    205       1.2977      0.00000
    206       1.3123      0.00000
    207       1.4372      0.00000
    208       1.5329      0.00000
    209       1.5671      0.00000
    210       1.6874      0.00000
    211       1.7281      0.00000
    212       1.8510      0.00000
    213       2.0519      0.00000
    214       2.2201      0.00000
    215       2.2997      0.00000
    216       2.7269      0.00000
    217       2.7504      0.00000
    218       3.0490      0.00000
    219       3.2515      0.00000
    220       3.5222      0.00000
    221       3.5274      0.00000
    222       3.6664      0.00000
    223       3.7515      0.00000
    224       3.8349      0.00000
    225       3.8892      0.00000
    226       4.1201      0.00000
    227       4.2161      0.00000
    228       4.2740      0.00000
    229       4.5396      0.00000
    230       4.6333      0.00000
    231       4.7810      0.00000
    232       5.0246      0.00000
    233       5.3355      0.00000
    234       5.6721      0.00000
    235       5.6752      0.00000
    236       5.6919      0.00000
    237       5.8660      0.00000
    238       5.9575      0.00000
    239       5.9701      0.00000
    240       6.0032      0.00000
    241       6.0629      0.00000
    242       6.1436      0.00000


--------------------------------------------------------------------------------------------------------


 soft charge-density along one line, spin component           1
         0         1         2         3         4         5         6         7         8         9
 total charge-density along one line
 
 soft charge-density along one line, spin component           2
         0         1         2         3         4         5         6         7         8         9
 total charge-density along one line
 
 pseudopotential strength for first ion, spin component:           1
 48.357  50.752  -0.000  -0.025  -0.000  -0.000  -0.031  -0.000
 50.752  53.268  -0.000  -0.026  -0.000  -0.000  -0.032  -0.000
 -0.000  -0.000   9.198  -0.000  -0.000  11.405  -0.000  -0.000
 -0.025  -0.026  -0.000   9.199  -0.000  -0.000  11.406  -0.000
 -0.000  -0.000  -0.000  -0.000   9.198  -0.000  -0.000  11.405
 -0.000  -0.000  11.405  -0.000  -0.000  14.157  -0.000  -0.000
 -0.031  -0.032  -0.000  11.406  -0.000  -0.000  14.158  -0.000
 -0.000  -0.000  -0.000  -0.000  11.405  -0.000  -0.000  14.157
 pseudopotential strength for first ion, spin component:           2
 48.357  50.752  -0.000  -0.025  -0.000  -0.000  -0.031  -0.000
 50.752  53.268  -0.000  -0.026  -0.000  -0.000  -0.032  -0.000
 -0.000  -0.000   9.198  -0.000  -0.000  11.405  -0.000  -0.000
 -0.025  -0.026  -0.000   9.199  -0.000  -0.000  11.406  -0.000
 -0.000  -0.000  -0.000  -0.000   9.198  -0.000  -0.000  11.405
 -0.000  -0.000  11.405  -0.000  -0.000  14.157  -0.000  -0.000
 -0.031  -0.032  -0.000  11.406  -0.000  -0.000  14.158  -0.000
 -0.000  -0.000  -0.000  -0.000  11.405  -0.000  -0.000  14.157
 total augmentation occupancy for first ion, spin component:           1
  5.670  -3.919  -0.018   2.317  -0.018   0.006  -1.124   0.006
 -3.919   4.097   0.017  -2.149   0.017  -0.007   1.082  -0.007
 -0.018   0.017   3.063  -0.009  -0.000  -0.691   0.005   0.000
  2.317  -2.149  -0.009   3.175  -0.009   0.005  -0.805   0.005
 -0.018   0.017  -0.000  -0.009   3.063   0.000   0.005  -0.691
  0.006  -0.007  -0.691   0.005   0.000   0.242  -0.002  -0.000
 -1.124   1.082   0.005  -0.805   0.005  -0.002   0.343  -0.002
  0.006  -0.007   0.000   0.005  -0.691  -0.000  -0.002   0.242
 total augmentation occupancy for first ion, spin component:           2
  0.000  -0.000   0.000  -0.000   0.000   0.000   0.000   0.000
 -0.000   0.000  -0.000  -0.000  -0.000   0.000  -0.000   0.000
  0.000  -0.000   0.000  -0.000  -0.000  -0.000  -0.000   0.000
 -0.000  -0.000  -0.000  -0.000  -0.000   0.000   0.000   0.000
  0.000  -0.000  -0.000  -0.000   0.000   0.000  -0.000  -0.000
  0.000   0.000  -0.000   0.000   0.000   0.000   0.000  -0.000
  0.000  -0.000  -0.000   0.000  -0.000   0.000  -0.000   0.000
  0.000   0.000   0.000   0.000  -0.000  -0.000   0.000   0.000


------------------------ aborting loop because EDIFF is reached ----------------------------------------


    CHARGE:  cpu time    0.8309: real time    0.8313
    FORLOC:  cpu time    0.0103: real time    0.0104
    FORNL :  cpu time    3.8910: real time    3.8926
    STRESS:  cpu time   12.0635: real time   12.0725
    FORCOR:  cpu time    0.1124: real time    0.1125
    FORHAR:  cpu time    0.0202: real time    0.0202
    MIXING:  cpu time    0.0029: real time    0.0029
    OFIELD:  cpu time    0.0000: real time    0.0000

 ---------------------------------------------------------------------------------------------

         DFTD3 V3.0 Rev 1        
 Edisp (eV)  -12.70882

 E6    (eV) :    -5.1259
 E8    (eV) :    -7.5830
 % E8        : 59.67
    FORVDW:  cpu time    0.0704: real time    0.0706

  FORCE on cell =-STRESS in cart. coord.  units (eV):
  Direction    XX          YY          ZZ          XY          YZ          ZX
  --------------------------------------------------------------------------------------
  Alpha Z   686.66972   686.66972   686.66972
  Ewald  131474.74759131474.74759************    -0.08607    -2.18918    -2.18918
  Hartree141625.67868141625.67868************    -0.04219    -0.94607    -0.94607
  E(xc)   -2115.96358 -2115.96358 -2120.73909    -0.00032    -0.00646    -0.00646
  Local  ************************284514.26742     0.12433     3.02144     3.02144
  n-local  -251.63565  -222.77316  -242.46796     0.00318    -0.01890    -0.01928
  augment  3290.56504  3290.56504  3300.09467    -0.00035     0.01460     0.01462
  Kinetic  5020.69994  5030.37485  5049.37230     0.00420     0.09190     0.08546
  Fock        0.00000     0.00000     0.00000     0.00000     0.00000     0.00000
  vdW       -15.30732   -15.30732    -8.38107     0.00057     0.00631     0.00631
  -------------------------------------------------------------------------------------
  Total     -12.67016   -12.67016    -1.10999     0.00335    -0.02975    -0.02975
  in kB     -12.29220   -12.29220    -1.07688     0.00325    -0.02887    -0.02887
  external pressure =       -8.55 kB  Pullay stress =        0.00 kB


 VOLUME and BASIS-vectors are now :
 -----------------------------------------------------------------------------
  energy-cutoff  :      400.00
  volume of cell :     1651.44
      direct lattice vectors                 reciprocal lattice vectors
     8.642259080  0.000000000  0.000000000     0.115710486  0.000000000  0.000000000
     0.000000000  8.642259080  0.000000000     0.000000000  0.115710486  0.000000000
     0.000000000  0.000000000 22.111000000     0.000000000  0.000000000  0.045226358

  length of vectors
     8.642259080  8.642259080 22.111000000     0.115710486  0.115710486  0.045226358


 FORCES acting on ions
    electron-ion (+dipol)            ewald-force                    non-local-force                 convergence-correction
 -----------------------------------------------------------------------------------------------
   0.674E+00 0.674E+00 -.180E+04   -.756E+00 -.756E+00 0.180E+04   0.479E-01 0.479E-01 -.338E+01   0.350E-01 0.350E-01 0.970E-01
   0.440E+02 0.440E+02 -.234E+04   -.452E+02 -.452E+02 0.234E+04   0.123E+01 0.123E+01 0.360E+01   -.226E-01 -.226E-01 -.107E-01
   -.442E+02 0.446E+02 -.234E+04   0.454E+02 -.458E+02 0.234E+04   -.120E+01 0.125E+01 0.357E+01   0.199E-01 -.140E-01 0.172E-03
   -.155E+00 0.951E+01 -.238E+04   0.155E+00 -.951E+01 0.238E+04   -.845E-02 -.774E-02 0.259E+01   0.654E-02 0.359E-03 0.327E-01
   0.446E+02 -.442E+02 -.234E+04   -.458E+02 0.454E+02 0.234E+04   0.125E+01 -.120E+01 0.357E+01   -.140E-01 0.199E-01 0.172E-03
   -.447E+02 -.447E+02 -.234E+04   0.459E+02 0.459E+02 0.233E+04   -.122E+01 -.122E+01 0.353E+01   0.926E-02 0.926E-02 0.201E-01
   -.922E-01 -.926E+01 -.238E+04   0.896E-01 0.926E+01 0.238E+04   -.957E-02 0.705E-02 0.259E+01   0.914E-02 -.680E-03 0.391E-01
   0.951E+01 -.155E+00 -.238E+04   -.951E+01 0.155E+00 0.238E+04   -.774E-02 -.845E-02 0.259E+01   0.359E-03 0.654E-02 0.327E-01
   -.926E+01 -.922E-01 -.238E+04   0.926E+01 0.896E-01 0.238E+04   0.705E-02 -.957E-02 0.259E+01   -.680E-03 0.914E-02 0.391E-01
   -.184E+00 -.184E+00 -.240E+04   0.188E+00 0.188E+00 0.240E+04   -.346E-02 -.346E-02 0.258E+01   -.505E-03 -.505E-03 0.404E-01
   -.242E+00 -.242E+00 -.761E+03   0.247E+00 0.247E+00 0.760E+03   0.106E-01 0.106E-01 0.687E+00   -.104E-01 -.104E-01 -.111E-01
   -.951E+01 -.840E-01 -.769E+03   0.929E+01 0.912E-01 0.769E+03   0.204E+00 0.699E-02 0.311E+00   0.247E-01 -.103E-01 0.335E-01
   0.966E+01 -.311E-01 -.769E+03   -.945E+01 0.355E-01 0.769E+03   -.219E+00 0.381E-02 0.308E+00   -.573E-02 -.535E-02 0.487E-01
   -.840E-01 -.951E+01 -.769E+03   0.912E-01 0.929E+01 0.769E+03   0.699E-02 0.204E+00 0.311E+00   -.103E-01 0.247E-01 0.335E-01
   -.106E+02 -.106E+02 -.773E+03   0.104E+02 0.104E+02 0.772E+03   0.116E+00 0.116E+00 0.483E+00   0.344E-01 0.344E-01 0.416E-01
   0.106E+02 -.105E+02 -.773E+03   -.105E+02 0.103E+02 0.772E+03   -.120E+00 0.116E+00 0.488E+00   -.193E-01 0.187E-01 0.567E-01
   -.311E-01 0.966E+01 -.769E+03   0.355E-01 -.945E+01 0.769E+03   0.381E-02 -.219E+00 0.308E+00   -.535E-02 -.573E-02 0.487E-01
   -.105E+02 0.106E+02 -.773E+03   0.103E+02 -.105E+02 0.772E+03   0.116E+00 -.120E+00 0.488E+00   0.187E-01 -.193E-01 0.567E-01
   0.104E+02 0.104E+02 -.773E+03   -.103E+02 -.103E+02 0.772E+03   -.117E+00 -.117E+00 0.497E+00   -.109E-01 -.109E-01 0.660E-01
   0.228E+01 0.228E+01 0.874E+03   -.229E+01 -.229E+01 -.873E+03   0.975E-02 0.975E-02 -.451E+00   -.172E-02 -.172E-02 0.914E-01
   -.233E+01 0.229E+01 0.874E+03   0.234E+01 -.230E+01 -.873E+03   -.902E-02 0.101E-01 -.447E+00   0.149E-02 -.185E-02 0.922E-01
   0.161E-01 0.123E+01 0.868E+03   -.170E-01 -.117E+01 -.867E+03   0.423E-03 -.350E-01 -.765E+00   0.303E-03 -.528E-03 0.933E-01
   0.229E+01 -.233E+01 0.874E+03   -.230E+01 0.234E+01 -.873E+03   0.101E-01 -.902E-02 -.447E+00   -.185E-02 0.149E-02 0.922E-01
   -.236E+01 -.236E+01 0.874E+03   0.237E+01 0.237E+01 -.873E+03   -.981E-02 -.981E-02 -.444E+00   0.151E-02 0.151E-02 0.934E-01
   0.166E-02 -.134E+01 0.868E+03   -.261E-02 0.128E+01 -.867E+03   0.171E-02 0.327E-01 -.763E+00   0.424E-03 0.181E-03 0.935E-01
   0.123E+01 0.161E-01 0.868E+03   -.117E+01 -.170E-01 -.867E+03   -.350E-01 0.423E-03 -.765E+00   -.528E-03 0.303E-03 0.933E-01
   -.134E+01 0.166E-02 0.868E+03   0.128E+01 -.261E-02 -.867E+03   0.327E-01 0.171E-02 -.763E+00   0.181E-03 0.424E-03 0.935E-01
   0.791E-01 0.791E-01 0.863E+03   -.848E-01 -.848E-01 -.863E+03   0.417E-02 0.417E-02 -.506E+00   0.365E-03 0.365E-03 0.905E-01
   -.998E-02 -.998E-02 0.247E+04   0.111E-01 0.111E-01 -.246E+04   -.115E-02 -.115E-02 -.258E+01   0.758E-04 0.758E-04 0.478E-01
   -.691E+00 -.154E-01 0.247E+04   0.765E+00 0.154E-01 -.246E+04   -.754E-01 0.198E-03 -.251E+01   -.903E-04 0.438E-05 0.473E-01
   0.702E+00 -.158E-01 0.247E+04   -.778E+00 0.158E-01 -.246E+04   0.765E-01 0.457E-03 -.251E+01   0.162E-04 0.114E-04 0.465E-01
   -.154E-01 -.691E+00 0.247E+04   0.154E-01 0.765E+00 -.246E+04   0.198E-03 -.754E-01 -.251E+01   0.438E-05 -.903E-04 0.473E-01
   -.651E+00 -.651E+00 0.247E+04   0.643E+00 0.643E+00 -.246E+04   -.166E-03 -.166E-03 -.266E+01   0.127E-03 0.127E-03 0.469E-01
   0.667E+00 -.646E+00 0.247E+04   -.660E+00 0.637E+00 -.246E+04   -.984E-04 0.711E-03 -.266E+01   -.125E-03 -.325E-04 0.463E-01
   -.158E-01 0.702E+00 0.247E+04   0.158E-01 -.778E+00 -.246E+04   0.457E-03 0.765E-01 -.251E+01   0.114E-04 0.162E-04 0.465E-01
   -.646E+00 0.667E+00 0.247E+04   0.637E+00 -.660E+00 -.246E+04   0.711E-03 -.984E-04 -.266E+01   -.325E-04 -.125E-03 0.463E-01
   0.662E+00 0.662E+00 0.247E+04   -.653E+00 -.653E+00 -.246E+04   -.112E-02 -.112E-02 -.267E+01   0.304E-04 0.304E-04 0.455E-01
 -----------------------------------------------------------------------------------------------
   -.145E+00 -.145E+00 -.870E+00   -.248E-13 -.107E-12 -.136E-10   0.927E-01 0.927E-01 -.939E+00   0.584E-01 0.584E-01 0.192E+01
 
 
 POSITION                                       TOTAL-FORCE (eV/Angst)
 -----------------------------------------------------------------------------------
      1.45836      1.45836      8.00844         0.002990      0.002990     -0.009521
     -0.03371     -0.03371      6.18740         0.003928      0.003928      0.001526
      2.91631     -0.03459      6.18829        -0.001731      0.003886     -0.001429
      5.76298     -0.00074      6.14352        -0.002819      0.000766     -0.002983
     -0.03459      2.91631      6.18829         0.003886     -0.001731     -0.001429
      2.91948      2.91948      6.18908        -0.001543     -0.001543     -0.005224
      5.76408      2.88098      6.14331        -0.003225     -0.000736     -0.005118
     -0.00074      5.76298      6.14352         0.000766     -0.002819     -0.002983
      2.88098      5.76408      6.14331        -0.000736     -0.003225     -0.005118
      5.76131      5.76131      6.16191        -0.000367     -0.000367     -0.002954
      1.44078      1.44078      4.09842         0.004024      0.004024      0.015186
      4.30762      1.44054      4.10548        -0.003712      0.003613      0.008802
      7.21659      1.44017      4.10549        -0.001175      0.002634      0.004190
      1.44054      4.30762      4.10548         0.003613     -0.003712      0.008802
      4.31365      4.31365      4.10680        -0.006005     -0.006005      0.006662
      7.21052      4.31356      4.10666         0.002227     -0.002448      0.002796
      1.44017      7.21659      4.10549         0.002634     -0.001175      0.004190
      4.31356      7.21052      4.10666        -0.002448      0.002227      0.002796
      7.20957      7.20957      4.10620        -0.000259     -0.000259     -0.000258
      0.00000      0.00000      2.03700        -0.007431     -0.007431      0.025216
      2.88075      0.00000      2.03700         0.008184     -0.006706      0.026892
      5.76151      0.00000      2.03700        -0.000426      0.023184      0.064562
      0.00000      2.88075      2.03700        -0.006706      0.008184      0.026892
      2.88075      2.88075      2.03700         0.006853      0.006853      0.028709
      5.76151      2.88075      2.03700         0.000976     -0.021700      0.066680
      0.00000      5.76151      2.03700         0.023184     -0.000426      0.064562
      2.88075      5.76151      2.03700        -0.021700      0.000976      0.066680
      5.76151      5.76151      2.03700        -0.001421     -0.001421      0.156097
      1.44038      1.44038      0.00000        -0.000089     -0.000089     -0.046661
      4.32113      1.44038      0.00000        -0.001691     -0.000060     -0.061569
      7.20188      1.44038      0.00000         0.001253      0.000265     -0.062050
      1.44038      4.32113      0.00000        -0.000060     -0.001691     -0.061569
      4.32113      4.32113      0.00000        -0.007971     -0.007971     -0.062525
      7.20188      4.32113      0.00000         0.007519     -0.008009     -0.062582
      1.44038      7.20188      0.00000         0.000265      0.001253     -0.062050
      4.32113      7.20188      0.00000        -0.008009      0.007519     -0.062582
      7.20188      7.20188      0.00000         0.007221      0.007221     -0.062635
 -----------------------------------------------------------------------------------
    total drift:                                0.006316      0.006316      0.110641


--------------------------------------------------------------------------------------------------------



  FREE ENERGIE OF THE ION-ELECTRON SYSTEM (eV)
  ---------------------------------------------------
  free  energy   TOTEN  =      -106.28431349 eV

  energy  without entropy=     -106.24024649  energy(sigma->0) =     -106.26227999
 
 d Force = 0.1599646E-03[-0.200E-03, 0.520E-03]  d Energy = 0.5139761E-03-0.354E-03
 d Force =-0.5639897E+02[-0.564E+02,-0.564E+02]  d Ewald  =-0.5639898E+02 0.372E-05


--------------------------------------------------------------------------------------------------------


    POTLOK:  cpu time    0.1186: real time    0.1191


--------------------------------------------------------------------------------------------------------


 stress matrix after NEB project (eV)
    -12.67016      0.00335     -0.02975
      0.00335    -12.67016     -0.02975
     -0.02975     -0.02975     -1.10999
  FORCES: max atom, RMS     0.016217    0.005224
  FORCE total and by dimension    0.031778    0.015186
  Stress total and by dimension   17.952758   12.670160
 OPT: skip step - force has converged


--------------------------------------------------------------------------------------------------------


  
 reached required accuracy - stopping structural energy minimisation
     LOOP+:  cpu time   61.5633: real time   61.6456
    4ORBIT:  cpu time    0.0000: real time    0.0000

 total amount of memory used by VASP MPI-rank0   129987. kBytes
=======================================================================

   base      :      30000. kBytes
   nonlr-proj:       3562. kBytes
   fftplans  :       4587. kBytes
   grid      :      11673. kBytes
   one-center:         62. kBytes
   wavefun   :      80103. kBytes
 
  
  
 General timing and accounting informations for this job:
 ========================================================
  
                  Total CPU time used (sec):     1837.606
                            User time (sec):     1836.225
                          System time (sec):        1.381
                         Elapsed time (sec):     1839.886
  
                   Maximum memory used (kb):      569688.
                   Average memory used (kb):           0.
  
                          Minor page faults:       180687
                          Major page faults:           12
                 Voluntary context switches:         3403
