<?xml version="1.0" encoding="ISO-8859-1"?>
<modeling>
 <generator>
  <i name="program" type="string">vasp </i>
  <i name="version" type="string">5.4.4.18Apr17-6-g9f103f2a35  </i>
  <i name="subversion" type="string">(build Sep 18 2020 13:42:41) complex            parallel </i>
  <i name="platform" type="string">Eagle </i>
  <i name="date" type="string">2021 12 14 </i>
  <i name="time" type="string">15:14:33 </i>
 </generator>
 <incar>
  <i type="string" name="SYSTEM"> CatImpurities</i>
  <i type="string" name="PREC">accurate</i>
  <i type="string" name="ALGO"> Fast</i>
  <i type="int" name="ISPIN">     2</i>
  <i type="int" name="NELM">  1000</i>
  <i type="int" name="NELMDL">    -5</i>
  <i type="int" name="IBRION">     3</i>
  <i name="EDIFFG">     -0.02000000</i>
  <i type="int" name="NSW">   500</i>
  <i type="int" name="ISYM">     2</i>
  <i name="ENCUT">    400.00000000</i>
  <i name="POTIM">      0.00000000</i>
  <v name="MAGMOM">      1.00000000      0.00000000      0.00000000      0.00000000      0.00000000      0.00000000      0.00000000      0.00000000      0.00000000      0.00000000      0.00000000      0.00000000      0.00000000      0.00000000      0.00000000      0.00000000      0.00000000      0.00000000      0.00000000      0.00000000
      0.00000000      0.00000000      0.00000000      0.00000000      0.00000000      0.00000000      0.00000000      0.00000000      0.00000000      0.00000000      0.00000000      0.00000000      0.00000000      0.00000000      0.00000000      0.00000000      0.00000000</v>
  <i type="string" name="LREAL"> Auto</i>
  <i type="int" name="ISMEAR">     0</i>
  <i name="SIGMA">      0.10000000</i>
  <i type="logical" name="LWAVE"> F  </i>
  <i type="logical" name="LCHARG"> F  </i>
  <v type="int" name="KPOINT_BSE">    -1     0     0     0</v>
  <i type="int" name="NELM">  1000</i>
  <i type="logical" name="LDIPOL"> T  </i>
  <i type="int" name="IDIPOL">     3</i>
 </incar>
 <structure name="primitive_cell" >
  <crystal>
   <varray name="basis" >
    <v>       8.64225908       0.00000000       0.00000000 </v>
    <v>       0.00000000       8.64225908       0.00000000 </v>
    <v>       0.00000000       0.00000000      22.11100000 </v>
   </varray>
   <i name="volume">   1651.44056326 </i>
   <varray name="rec_basis" >
    <v>       0.11571049       0.00000000       0.00000000 </v>
    <v>       0.00000000       0.11571049       0.00000000 </v>
    <v>       0.00000000       0.00000000       0.04522636 </v>
   </varray>
  </crystal>
  <varray name="positions" >
   <v>       0.17000000       0.17000000       0.40986371 </v>
   <v>       0.33333333       0.33333333       0.27870728 </v>
   <v>       0.33333333       0.00000000       0.27870728 </v>
   <v>       0.00000000       0.33333333       0.27870728 </v>
   <v>       0.00000000       0.00000000       0.27870728 </v>
   <v>       0.16666667       0.16666667       0.18558292 </v>
   <v>      -0.33333333       0.33333333       0.27870728 </v>
   <v>       0.33333333      -0.33333333       0.27870728 </v>
   <v>      -0.33333333       0.00000000       0.27870728 </v>
   <v>       0.00000000      -0.33333333       0.27870728 </v>
   <v>      -0.50000000       0.16666667       0.18558292 </v>
   <v>       0.16666667      -0.50000000       0.18558292 </v>
   <v>      -0.16666667       0.16666667       0.18558292 </v>
   <v>       0.16666667      -0.16666667       0.18558292 </v>
   <v>      -0.50000000      -0.50000000       0.18558292 </v>
   <v>      -0.16666667      -0.50000000       0.18558292 </v>
   <v>      -0.50000000      -0.16666667       0.18558292 </v>
   <v>      -0.16666667      -0.16666667       0.18558292 </v>
   <v>      -0.33333333      -0.33333333       0.27870728 </v>
   <v>       0.33333333       0.33333333       0.09212609 </v>
   <v>       0.33333333       0.00000000       0.09212609 </v>
   <v>       0.00000000       0.33333333       0.09212609 </v>
   <v>       0.00000000       0.00000000       0.09212609 </v>
   <v>      -0.33333333       0.33333333       0.09212609 </v>
   <v>       0.33333333      -0.33333333       0.09212609 </v>
   <v>      -0.33333333       0.00000000       0.09212609 </v>
   <v>       0.00000000      -0.33333333       0.09212609 </v>
   <v>       0.16666667       0.16666667       0.00000000 </v>
   <v>      -0.33333333      -0.33333333       0.09212609 </v>
   <v>      -0.50000000       0.16666667       0.00000000 </v>
   <v>       0.16666667      -0.50000000       0.00000000 </v>
   <v>      -0.16666667       0.16666667       0.00000000 </v>
   <v>       0.16666667      -0.16666667       0.00000000 </v>
   <v>      -0.50000000      -0.50000000       0.00000000 </v>
   <v>      -0.16666667      -0.50000000       0.00000000 </v>
   <v>      -0.50000000      -0.16666667       0.00000000 </v>
   <v>      -0.16666667      -0.16666667       0.00000000 </v>
  </varray>
 </structure>
 <varray name="primitive_index" >
  <v type="int" >        1 </v>
  <v type="int" >        6 </v>
  <v type="int" >        3 </v>
  <v type="int" >        5 </v>
  <v type="int" >        2 </v>
  <v type="int" >       11 </v>
  <v type="int" >        7 </v>
  <v type="int" >        9 </v>
  <v type="int" >        4 </v>
  <v type="int" >        8 </v>
  <v type="int" >       12 </v>
  <v type="int" >       14 </v>
  <v type="int" >       13 </v>
  <v type="int" >       17 </v>
  <v type="int" >       15 </v>
  <v type="int" >       16 </v>
  <v type="int" >       18 </v>
  <v type="int" >       19 </v>
  <v type="int" >       10 </v>
  <v type="int" >       24 </v>
  <v type="int" >       21 </v>
  <v type="int" >       23 </v>
  <v type="int" >       20 </v>
  <v type="int" >       25 </v>
  <v type="int" >       27 </v>
  <v type="int" >       22 </v>
  <v type="int" >       26 </v>
  <v type="int" >       29 </v>
  <v type="int" >       28 </v>
  <v type="int" >       30 </v>
  <v type="int" >       32 </v>
  <v type="int" >       31 </v>
  <v type="int" >       35 </v>
  <v type="int" >       33 </v>
  <v type="int" >       34 </v>
  <v type="int" >       36 </v>
  <v type="int" >       37 </v>
 </varray>
 <kpoints>
  <generation param="Monkhorst-Pack">
   <v type="int" name="divisions">       6        6        1 </v>
   <v name="usershift">      0.00000000       0.00000000       0.00000000 </v>
   <v name="genvec1">      0.16666667       0.00000000       0.00000000 </v>
   <v name="genvec2">      0.00000000       0.16666667       0.00000000 </v>
   <v name="genvec3">      0.00000000       0.00000000       1.00000000 </v>
   <v name="shift">      0.50000000       0.50000000       0.00000000 </v>
  </generation>
  <varray name="kpointlist" >
   <v>       0.08333333       0.08333333       0.00000000 </v>
   <v>       0.25000000       0.08333333       0.00000000 </v>
   <v>       0.41666667       0.08333333       0.00000000 </v>
   <v>      -0.41666667       0.08333333       0.00000000 </v>
   <v>      -0.25000000       0.08333333       0.00000000 </v>
   <v>      -0.08333333       0.08333333       0.00000000 </v>
   <v>       0.25000000       0.25000000       0.00000000 </v>
   <v>       0.41666667       0.25000000       0.00000000 </v>
   <v>      -0.41666667       0.25000000       0.00000000 </v>
   <v>      -0.25000000       0.25000000       0.00000000 </v>
   <v>       0.41666667       0.41666667       0.00000000 </v>
   <v>      -0.41666667       0.41666667       0.00000000 </v>
  </varray>
  <varray name="weights" >
   <v>       0.05555556 </v>
   <v>       0.11111111 </v>
   <v>       0.11111111 </v>
   <v>       0.11111111 </v>
   <v>       0.11111111 </v>
   <v>       0.05555556 </v>
   <v>       0.05555556 </v>
   <v>       0.11111111 </v>
   <v>       0.11111111 </v>
   <v>       0.05555556 </v>
   <v>       0.05555556 </v>
   <v>       0.05555556 </v>
  </varray>
 </kpoints>
 <parameters>
  <separator name="general" >
   <i type="string" name="SYSTEM">CatImpurities</i>
   <i type="logical" name="LCOMPAT"> F  </i>
  </separator>
  <separator name="electronic" >
   <i type="string" name="PREC">accura</i>
   <i name="ENMAX">    400.00000000</i>
   <i name="ENAUG">    412.49600000</i>
   <i name="EDIFF">      0.00010000</i>
   <i type="int" name="IALGO">    68</i>
   <i type="int" name="IWAVPR">    11</i>
   <i type="int" name="NBANDS">   242</i>
   <i name="NELECT">    403.00000000</i>
   <i type="int" name="TURBO">     0</i>
   <i type="int" name="IRESTART">     0</i>
   <i type="int" name="NREBOOT">     0</i>
   <i type="int" name="NMIN">     0</i>
   <i name="EREF">      0.00000000</i>
   <separator name="electronic smearing" >
    <i type="int" name="ISMEAR">     0</i>
    <i name="SIGMA">      0.10000000</i>
    <i name="KSPACING">      0.50000000</i>
    <i type="logical" name="KGAMMA"> T  </i>
   </separator>
   <separator name="electronic projectors" >
    <i type="logical" name="LREAL"> T  </i>
    <v name="ROPT">     -0.00025000     -0.00025000</v>
    <i type="int" name="LMAXPAW">  -100</i>
    <i type="int" name="LMAXMIX">     2</i>
    <i type="logical" name="NLSPLINE"> F  </i>
   </separator>
   <separator name="electronic startup" >
    <i type="int" name="ISTART">     0</i>
    <i type="int" name="ICHARG">     2</i>
    <i type="int" name="INIWAV">     1</i>
   </separator>
   <separator name="electronic spin" >
    <i type="int" name="ISPIN">     2</i>
    <i type="logical" name="LNONCOLLINEAR"> F  </i>
    <v name="MAGMOM">      1.00000000      0.00000000      0.00000000      0.00000000      0.00000000      0.00000000      0.00000000      0.00000000      0.00000000      0.00000000      0.00000000      0.00000000      0.00000000      0.00000000      0.00000000      0.00000000      0.00000000      0.00000000      0.00000000      0.00000000
      0.00000000      0.00000000      0.00000000      0.00000000      0.00000000      0.00000000      0.00000000      0.00000000      0.00000000      0.00000000      0.00000000      0.00000000      0.00000000      0.00000000      0.00000000      0.00000000      0.00000000</v>
    <i name="NUPDOWN">     -1.00000000</i>
    <i type="logical" name="LSORBIT"> F  </i>
    <v name="SAXIS">      0.00000000      0.00000000      1.00000000</v>
    <i type="logical" name="LSPIRAL"> F  </i>
    <v name="QSPIRAL">      0.00000000      0.00000000      0.00000000</v>
    <i type="logical" name="LZEROZ"> F  </i>
   </separator>
   <separator name="electronic exchange-correlation" >
    <i type="logical" name="LASPH"> F  </i>
    <i type="logical" name="LMETAGGA"> F  </i>
   </separator>
   <separator name="electronic convergence" >
    <i type="int" name="NELM">  1000</i>
    <i type="int" name="NELMDL">    -5</i>
    <i type="int" name="NELMIN">     2</i>
    <i name="ENINI">    400.00000000</i>
    <separator name="electronic convergence detail" >
     <i type="logical" name="LDIAG"> T  </i>
     <i type="logical" name="LSUBROT"> F  </i>
     <i name="WEIMIN">      0.00100000</i>
     <i name="EBREAK">      0.00000010</i>
     <i name="DEPER">      0.30000000</i>
     <i type="int" name="NRMM">     4</i>
     <i name="TIME">      0.40000000</i>
    </separator>
   </separator>
   <separator name="electronic mixer" >
    <i name="AMIX">      0.40000000</i>
    <i name="BMIX">      1.00000000</i>
    <i name="AMIN">      0.10000000</i>
    <i name="AMIX_MAG">      1.60000000</i>
    <i name="BMIX_MAG">      1.00000000</i>
    <separator name="electronic mixer details" >
     <i type="int" name="IMIX">     4</i>
     <i type="logical" name="MIXFIRST"> F  </i>
     <i type="int" name="MAXMIX">   -45</i>
     <i name="WC">    100.00000000</i>
     <i type="int" name="INIMIX">     1</i>
     <i type="int" name="MIXPRE">     1</i>
     <i type="int" name="MREMOVE">     5</i>
    </separator>
   </separator>
   <separator name="electronic dipolcorrection" >
    <i type="logical" name="LDIPOL"> T  </i>
    <i type="logical" name="LMONO"> F  </i>
    <i type="int" name="IDIPOL">     3</i>
    <i name="EPSILON">      1.00000000</i>
    <v name="DIPOL">   -100.00000000   -100.00000000   -100.00000000</v>
    <i name="EFIELD">      0.00000000</i>
   </separator>
  </separator>
  <separator name="grids" >
   <i type="int" name="NGX">    56</i>
   <i type="int" name="NGY">    56</i>
   <i type="int" name="NGZ">   144</i>
   <i type="int" name="NGXF">   112</i>
   <i type="int" name="NGYF">   112</i>
   <i type="int" name="NGZF">   288</i>
   <i type="logical" name="ADDGRID"> F  </i>
  </separator>
  <separator name="ionic" >
   <i type="int" name="NSW">   500</i>
   <i type="int" name="IBRION">     3</i>
   <i type="int" name="MDALGO">     0</i>
   <i type="int" name="ISIF">     2</i>
   <i name="PSTRESS">      0.00000000</i>
   <i name="EDIFFG">     -0.02000000</i>
   <i type="int" name="NFREE">     0</i>
   <i name="POTIM">      0.00000000</i>
   <i name="SMASS">     -3.00000000</i>
   <i name="SCALEE">      1.00000000</i>
  </separator>
  <separator name="ionic md" >
   <i name="TEBEG">      0.00010000</i>
   <i name="TEEND">      0.00010000</i>
   <i type="int" name="NBLOCK">     1</i>
   <i type="int" name="KBLOCK">   500</i>
   <i type="int" name="NPACO">   256</i>
   <i name="APACO">     16.00000000</i>
  </separator>
  <separator name="symmetry" >
   <i type="int" name="ISYM">     2</i>
   <i name="SYMPREC">      0.00001000</i>
  </separator>
  <separator name="dos" >
   <i type="int" name="LORBIT">     0</i>
   <v name="RWIGS">     -1.00000000     -1.00000000</v>
   <i type="int" name="NEDOS">   301</i>
   <i name="EMIN">     10.00000000</i>
   <i name="EMAX">    -10.00000000</i>
   <i name="EFERMI">      0.00000000</i>
  </separator>
  <separator name="writing" >
   <i type="int" name="NWRITE">     2</i>
   <i type="logical" name="LWAVE"> F  </i>
   <i type="logical" name="LDOWNSAMPLE"> F  </i>
   <i type="logical" name="LCHARG"> F  </i>
   <i type="logical" name="LPARD"> F  </i>
   <i type="logical" name="LVTOT"> F  </i>
   <i type="logical" name="LVHAR"> F  </i>
   <i type="logical" name="LELF"> F  </i>
   <i type="logical" name="LOPTICS"> F  </i>
   <v name="STM">      0.00000000      0.00000000      0.00000000      0.00000000      0.00000000      0.00000000      0.00000000</v>
  </separator>
  <separator name="performance" >
   <i type="int" name="NPAR">     1</i>
   <i type="int" name="NSIM">     4</i>
   <i type="int" name="NBLK">    -1</i>
   <i type="logical" name="LPLANE"> T  </i>
   <i type="logical" name="LSCALAPACK"> T  </i>
   <i type="logical" name="LSCAAWARE"> F  </i>
   <i type="logical" name="LSCALU"> F  </i>
   <i type="logical" name="LASYNC"> F  </i>
   <i type="logical" name="LORBITALREAL"> F  </i>
  </separator>
  <separator name="miscellaneous" >
   <i type="int" name="IDIOT">     3</i>
   <i type="int" name="ISPECIAL">     0</i>
   <i type="logical" name="LMUSIC"> F  </i>
   <v name="POMASS">     35.45300000    107.86800000</v>
   <v name="DARWINR">      0.00000000      0.00000000</v>
   <v name="DARWINV">      1.00000000      1.00000000</v>
   <i type="logical" name="LCORR"> T  </i>
  </separator>
  <i type="logical" name="GGA_COMPAT"> T  </i>
  <i type="logical" name="LBERRY"> F  </i>
  <i type="int" name="ICORELEVEL">     0</i>
  <i type="logical" name="LDAU"> F  </i>
  <i type="int" name="I_CONSTRAINED_M">     0</i>
  <separator name="electronic exchange-correlation" >
   <i type="string" name="GGA">--</i>
   <i type="int" name="VOSKOWN">     0</i>
   <i type="logical" name="LHFCALC"> F  </i>
   <i type="string" name="PRECFOCK"></i>
   <i type="logical" name="LSYMGRAD"> F  </i>
   <i type="logical" name="LHFONE"> F  </i>
   <i type="logical" name="LRHFCALC"> F  </i>
   <i type="logical" name="LTHOMAS"> F  </i>
   <i type="logical" name="LMODELHF"> F  </i>
   <i name="ENCUT4O">     -1.00000000</i>
   <i type="int" name="EXXOEP">     0</i>
   <i type="int" name="FOURORBIT">     0</i>
   <i name="AEXX">      0.00000000</i>
   <i name="HFALPHA">      0.00000000</i>
   <i name="MCALPHA">      0.00000000</i>
   <i name="ALDAX">      1.00000000</i>
   <i name="AGGAX">      1.00000000</i>
   <i name="ALDAC">      1.00000000</i>
   <i name="AGGAC">      1.00000000</i>
   <i type="int" name="NKREDX">     1</i>
   <i type="int" name="NKREDY">     1</i>
   <i type="int" name="NKREDZ">     1</i>
   <i type="logical" name="SHIFTRED"> F  </i>
   <i type="logical" name="ODDONLY"> F  </i>
   <i type="logical" name="EVENONLY"> F  </i>
   <i type="int" name="LMAXFOCK">     0</i>
   <i type="int" name="NMAXFOCKAE">     0</i>
   <i type="logical" name="LFOCKAEDFT"> F  </i>
   <i name="HFSCREEN">      0.00000000</i>
   <i name="HFSCREENC">      0.00000000</i>
   <i type="int" name="NBANDSGWLOW">     0</i>
  </separator>
  <separator name="vdW DFT" >
   <i type="logical" name="LUSE_VDW"> F  </i>
   <i name="Zab_VDW">     -0.84910000</i>
   <i name="PARAM1">      0.12340000</i>
   <i name="PARAM2">      1.00000000</i>
   <i name="PARAM3">      0.00000000</i>
  </separator>
  <separator name="model GW" >
   <i type="int" name="MODEL_GW">     0</i>
   <i name="MODEL_EPS0">     26.78011724</i>
   <i name="MODEL_ALPHA">      1.00000000</i>
  </separator>
  <separator name="linear response parameters" >
   <i type="logical" name="LEPSILON"> F  </i>
   <i type="logical" name="LRPA"> F  </i>
   <i type="logical" name="LNABLA"> F  </i>
   <i type="logical" name="LVEL"> F  </i>
   <i type="int" name="KINTER">     0</i>
   <i name="CSHIFT">      0.10000000</i>
   <i name="OMEGAMAX">     -1.00000000</i>
   <i name="DEG_THRESHOLD">      0.00200000</i>
   <i name="RTIME">     -0.10000000</i>
   <i name="WPLASMAI">      0.00000000</i>
   <v name="DFIELD">      0.00000000      0.00000000      0.00000000</v>
   <v name="WPLASMA">      0.00000000      0.00000000      0.00000000      0.00000000      0.00000000      0.00000000      0.00000000      0.00000000      0.00000000</v>
  </separator>
  <separator name="orbital magnetization" >
   <i type="logical" name="NUCIND"> F  </i>
   <v name="MAGPOS">      0.00000000      0.00000000      0.00000000</v>
   <i type="logical" name="LNICSALL"> T  </i>
   <i type="logical" name="ORBITALMAG"> F  </i>
   <i type="logical" name="LMAGBLOCH"> F  </i>
   <i type="logical" name="LCHIMAG"> F  </i>
   <i type="logical" name="LGAUGE"> T  </i>
   <i type="int" name="MAGATOM">     0</i>
   <v name="MAGDIPOL">      0.00000000      0.00000000      0.00000000</v>
   <v name="AVECCONST">      0.00000000      0.00000000      0.00000000</v>
  </separator>
  <separator name="response functions" >
   <i type="logical" name="LADDER"> F  </i>
   <i type="logical" name="LRPAFORCE"> F  </i>
   <i type="logical" name="LFXC"> F  </i>
   <i type="logical" name="LHARTREE"> T  </i>
   <i type="int" name="IBSE">     0</i>
   <v type="int" name="KPOINT">    -1     0     0     0</v>
   <i type="logical" name="LTCTE"> F  </i>
   <i type="logical" name="LTETE"> F  </i>
   <i type="logical" name="LTRIPLET"> F  </i>
   <i type="logical" name="LFXCEPS"> F  </i>
   <i type="logical" name="LFXHEG"> F  </i>
   <i type="int" name="NATURALO">     2</i>
   <i type="logical" name="L2ORDER"> F  </i>
   <i type="logical" name="LMP2LT"> F  </i>
   <i type="logical" name="LUSEW"> F  </i>
   <i name="ENCUTGW">     -2.00000000</i>
   <i name="ENCUTGWSOFT">     -2.00000000</i>
   <i name="ENCUTLF">     -1.00000000</i>
   <i type="int" name="LMAXMP2">    -1</i>
   <i name="SCISSOR">      0.00000000</i>
   <i type="int" name="NOMEGA">     0</i>
   <i type="int" name="NOMEGAR">     0</i>
   <i type="int" name="NBANDSGW">    -1</i>
   <i type="int" name="NBANDSO">    -1</i>
   <i type="int" name="NBANDSV">    -1</i>
   <i type="int" name="NELM">  1000</i>
   <i type="int" name="NELMHF">     1</i>
   <i type="int" name="DIM">     3</i>
   <i type="int" name="ANTIRES">     0</i>
   <i name="OMEGAMAX">    -30.00000000</i>
   <i name="OMEGAMIN">    -30.00000000</i>
   <i name="OMEGATL">   -200.00000000</i>
   <i type="int" name="OMEGAGRID">   140</i>
   <i name="CSHIFT">     -0.10000000</i>
   <i type="logical" name="SELFENERGY"> F  </i>
   <i type="logical" name="LSPECTRAL"> F  </i>
   <i type="logical" name="LSPECTRALGW"> F  </i>
   <i type="logical" name="LSINGLES"> F  </i>
   <i type="logical" name="LFERMIGW"> F  </i>
   <i type="logical" name="ODDONLYGW"> F  </i>
   <i type="logical" name="EVENONLYGW"> F  </i>
   <i type="int" name="NKREDLFX">     1</i>
   <i type="int" name="NKREDLFY">     1</i>
   <i type="int" name="NKREDLFZ">     1</i>
   <i type="int" name="MAXMEM">  2800</i>
   <i type="int" name="TELESCOPE">     0</i>
   <i type="int" name="TAUPAR">     1</i>
   <i type="int" name="OMEGAPAR">    -1</i>
   <i name="LAMBDA">      1.00000000</i>
  </separator>
  <separator name="External order field" >
   <i name="OFIELD_KAPPA">      0.00000000</i>
   <v name="OFIELD_K">      0.00000000      0.00000000      0.00000000</v>
   <i name="OFIELD_Q6_NEAR">      0.00000000</i>
   <i name="OFIELD_Q6_FAR">      0.00000000</i>
   <i name="OFIELD_A">      0.00000000</i>
  </separator>
  <separator name="solvation model" >
   <i type="logical" name="LSOL"> F  </i>
  </separator>
 </parameters>
 <atominfo>
  <atoms>      37 </atoms>
  <types>       2 </types>
  <array name="atoms" >
   <dimension dim="1">ion</dimension>
   <field type="string">element</field>
   <field type="int">atomtype</field>
   <set>
    <rc><c>Cl</c><c>   1</c></rc>
    <rc><c>Ag</c><c>   2</c></rc>
    <rc><c>Ag</c><c>   2</c></rc>
    <rc><c>Ag</c><c>   2</c></rc>
    <rc><c>Ag</c><c>   2</c></rc>
    <rc><c>Ag</c><c>   2</c></rc>
    <rc><c>Ag</c><c>   2</c></rc>
    <rc><c>Ag</c><c>   2</c></rc>
    <rc><c>Ag</c><c>   2</c></rc>
    <rc><c>Ag</c><c>   2</c></rc>
    <rc><c>Ag</c><c>   2</c></rc>
    <rc><c>Ag</c><c>   2</c></rc>
    <rc><c>Ag</c><c>   2</c></rc>
    <rc><c>Ag</c><c>   2</c></rc>
    <rc><c>Ag</c><c>   2</c></rc>
    <rc><c>Ag</c><c>   2</c></rc>
    <rc><c>Ag</c><c>   2</c></rc>
    <rc><c>Ag</c><c>   2</c></rc>
    <rc><c>Ag</c><c>   2</c></rc>
    <rc><c>Ag</c><c>   2</c></rc>
    <rc><c>Ag</c><c>   2</c></rc>
    <rc><c>Ag</c><c>   2</c></rc>
    <rc><c>Ag</c><c>   2</c></rc>
    <rc><c>Ag</c><c>   2</c></rc>
    <rc><c>Ag</c><c>   2</c></rc>
    <rc><c>Ag</c><c>   2</c></rc>
    <rc><c>Ag</c><c>   2</c></rc>
    <rc><c>Ag</c><c>   2</c></rc>
    <rc><c>Ag</c><c>   2</c></rc>
    <rc><c>Ag</c><c>   2</c></rc>
    <rc><c>Ag</c><c>   2</c></rc>
    <rc><c>Ag</c><c>   2</c></rc>
    <rc><c>Ag</c><c>   2</c></rc>
    <rc><c>Ag</c><c>   2</c></rc>
    <rc><c>Ag</c><c>   2</c></rc>
    <rc><c>Ag</c><c>   2</c></rc>
    <rc><c>Ag</c><c>   2</c></rc>
   </set>
  </array>
  <array name="atomtypes" >
   <dimension dim="1">type</dimension>
   <field type="int">atomspertype</field>
   <field type="string">element</field>
   <field>mass</field>
   <field>valence</field>
   <field type="string">pseudopotential</field>
   <set>
    <rc><c>   1</c><c>Cl</c><c>     35.45300000</c><c>      7.00000000</c><c>  PAW_PBE Cl 06Sep2000                  </c></rc>
    <rc><c>  36</c><c>Ag</c><c>    107.86800000</c><c>     11.00000000</c><c>  PAW_PBE Ag 02Apr2005                  </c></rc>
   </set>
  </array>
 </atominfo>
 <structure name="initialpos" >
  <crystal>
   <varray name="basis" >
    <v>       8.64225908       0.00000000       0.00000000 </v>
    <v>       0.00000000       8.64225908       0.00000000 </v>
    <v>       0.00000000       0.00000000      22.11100000 </v>
   </varray>
   <i name="volume">   1651.44056326 </i>
   <varray name="rec_basis" >
    <v>       0.11571049       0.00000000       0.00000000 </v>
    <v>       0.00000000       0.11571049       0.00000000 </v>
    <v>       0.00000000       0.00000000       0.04522636 </v>
   </varray>
  </crystal>
  <varray name="positions" >
   <v>       0.17000000       0.17000000       0.40986371 </v>
   <v>       0.00000000       0.00000000       0.27870728 </v>
   <v>       0.33333333       0.00000000       0.27870728 </v>
   <v>       0.66666667       0.00000000       0.27870728 </v>
   <v>       0.00000000       0.33333333       0.27870728 </v>
   <v>       0.33333333       0.33333333       0.27870728 </v>
   <v>       0.66666667       0.33333333       0.27870728 </v>
   <v>       0.00000000       0.66666667       0.27870728 </v>
   <v>       0.33333333       0.66666667       0.27870728 </v>
   <v>       0.66666667       0.66666667       0.27870728 </v>
   <v>       0.16666667       0.16666667       0.18558292 </v>
   <v>       0.50000000       0.16666667       0.18558292 </v>
   <v>       0.83333333       0.16666667       0.18558292 </v>
   <v>       0.16666667       0.50000000       0.18558292 </v>
   <v>       0.50000000       0.50000000       0.18558292 </v>
   <v>       0.83333333       0.50000000       0.18558292 </v>
   <v>       0.16666667       0.83333333       0.18558292 </v>
   <v>       0.50000000       0.83333333       0.18558292 </v>
   <v>       0.83333333       0.83333333       0.18558292 </v>
   <v>       0.00000000       0.00000000       0.09212609 </v>
   <v>       0.33333333       0.00000000       0.09212609 </v>
   <v>       0.66666667       0.00000000       0.09212609 </v>
   <v>       0.00000000       0.33333333       0.09212609 </v>
   <v>       0.33333333       0.33333333       0.09212609 </v>
   <v>       0.66666667       0.33333333       0.09212609 </v>
   <v>       0.00000000       0.66666667       0.09212609 </v>
   <v>       0.33333333       0.66666667       0.09212609 </v>
   <v>       0.66666667       0.66666667       0.09212609 </v>
   <v>       0.16666667       0.16666667       0.00000000 </v>
   <v>       0.50000000       0.16666667       0.00000000 </v>
   <v>       0.83333333       0.16666667       0.00000000 </v>
   <v>       0.16666667       0.50000000       0.00000000 </v>
   <v>       0.50000000       0.50000000       0.00000000 </v>
   <v>       0.83333333       0.50000000       0.00000000 </v>
   <v>       0.16666667       0.83333333       0.00000000 </v>
   <v>       0.50000000       0.83333333       0.00000000 </v>
   <v>       0.83333333       0.83333333       0.00000000 </v>
  </varray>
  <varray name="selective"  type="logical" >
   <v type="logical" >  T  T  T </v>
   <v type="logical" >  T  T  T </v>
   <v type="logical" >  T  T  T </v>
   <v type="logical" >  T  T  T </v>
   <v type="logical" >  T  T  T </v>
   <v type="logical" >  T  T  T </v>
   <v type="logical" >  T  T  T </v>
   <v type="logical" >  T  T  T </v>
   <v type="logical" >  T  T  T </v>
   <v type="logical" >  T  T  T </v>
   <v type="logical" >  T  T  T </v>
   <v type="logical" >  T  T  T </v>
   <v type="logical" >  T  T  T </v>
   <v type="logical" >  T  T  T </v>
   <v type="logical" >  T  T  T </v>
   <v type="logical" >  T  T  T </v>
   <v type="logical" >  T  T  T </v>
   <v type="logical" >  T  T  T </v>
   <v type="logical" >  T  T  T </v>
   <v type="logical" >  F  F  F </v>
   <v type="logical" >  F  F  F </v>
   <v type="logical" >  F  F  F </v>
   <v type="logical" >  F  F  F </v>
   <v type="logical" >  F  F  F </v>
   <v type="logical" >  F  F  F </v>
   <v type="logical" >  F  F  F </v>
   <v type="logical" >  F  F  F </v>
   <v type="logical" >  F  F  F </v>
   <v type="logical" >  F  F  F </v>
   <v type="logical" >  F  F  F </v>
   <v type="logical" >  F  F  F </v>
   <v type="logical" >  F  F  F </v>
   <v type="logical" >  F  F  F </v>
   <v type="logical" >  F  F  F </v>
   <v type="logical" >  F  F  F </v>
   <v type="logical" >  F  F  F </v>
   <v type="logical" >  F  F  F </v>
  </varray>
  <nose>
   <v>      -3.00000000       0.00000000       0.00010000       0.00010000 </v>
  </nose>
 </structure>
 <calculation>
  <scstep>
   <time name="dav">   17.42   17.43</time>
   <time name="total">   17.57   17.58</time>
   <dipole>
    <v name="dipole">      0.00000000       0.00000000       0.00004199 </v>
    <i name="Tr[quadrupol]">  -5201.52002361 </i>
    <i name="Echarged">      0.00000000 </i>
    <i name="Edipol_quadrupol">      0.00000000 </i>
    <i name="Eion">      0.00000000 </i>
   </dipole>
   <energy>
    <i name="alphaZ">    686.67022751 </i>
    <i name="ewald"> 106713.52577095 </i>
    <i name="hartreedc">-145204.84570971 </i>
    <i name="XCdc">   -364.75513453 </i>
    <i name="pawpsdc">  36449.82752988 </i>
    <i name="pawaedc"> -34789.87452727 </i>
    <i name="eentropy">     -0.08166958 </i>
    <i name="bandstr">   1060.54939983 </i>
    <i name="atom">  37751.02038712 </i>
    <i name="e_fr_energy">   2302.03627421 </i>
    <i name="e_wo_entrp">   2302.11794379 </i>
    <i name="e_0_energy">   2302.07710900 </i>
   </energy>
  </scstep>
  <scstep>
   <time name="dav">   18.34   18.36</time>
   <time name="total">   18.36   18.37</time>
   <dipole>
    <v name="dipole">      0.00000000       0.00000000       0.00004199 </v>
    <i name="Tr[quadrupol]">  -5201.52002361 </i>
    <i name="Echarged">      0.00000000 </i>
    <i name="Edipol_quadrupol">      0.00000000 </i>
    <i name="Eion">      0.00000000 </i>
   </dipole>
   <energy>
    <i name="e_fr_energy">     12.01226184 </i>
    <i name="e_wo_entrp">     12.05278258 </i>
    <i name="e_0_energy">     12.03252221 </i>
   </energy>
  </scstep>
  <scstep>
   <time name="dav">   18.55   18.56</time>
   <time name="total">   18.56   18.57</time>
   <dipole>
    <v name="dipole">      0.00000000       0.00000000       0.00004199 </v>
    <i name="Tr[quadrupol]">  -5201.52002361 </i>
    <i name="Echarged">      0.00000000 </i>
    <i name="Edipol_quadrupol">      0.00000000 </i>
    <i name="Eion">      0.00000000 </i>
   </dipole>
   <energy>
    <i name="e_fr_energy">    -99.26459550 </i>
    <i name="e_wo_entrp">    -99.21354846 </i>
    <i name="e_0_energy">    -99.23907198 </i>
   </energy>
  </scstep>
  <scstep>
   <time name="dav">   18.35   18.36</time>
   <time name="total">   18.37   18.38</time>
   <dipole>
    <v name="dipole">      0.00000000       0.00000000       0.00004199 </v>
    <i name="Tr[quadrupol]">  -5201.52002361 </i>
    <i name="Echarged">      0.00000000 </i>
    <i name="Edipol_quadrupol">      0.00000000 </i>
    <i name="Eion">      0.00000000 </i>
   </dipole>
   <energy>
    <i name="e_fr_energy">   -101.57280217 </i>
    <i name="e_wo_entrp">   -101.52027984 </i>
    <i name="e_0_energy">   -101.54654100 </i>
   </energy>
  </scstep>
  <scstep>
   <time name="dav">   19.32   19.34</time>
   <time name="total">   20.17   20.19</time>
   <dipole>
    <v name="dipole">      0.00000000       0.00000000       0.00004199 </v>
    <i name="Tr[quadrupol]">  -5201.52002361 </i>
    <i name="Echarged">      0.00000000 </i>
    <i name="Edipol_quadrupol">      0.00000000 </i>
    <i name="Eion">      0.00000000 </i>
   </dipole>
   <energy>
    <i name="e_fr_energy">   -101.63173787 </i>
    <i name="e_wo_entrp">   -101.57920735 </i>
    <i name="e_0_energy">   -101.60547261 </i>
   </energy>
  </scstep>
  <scstep>
   <time name="diag">    2.40    2.40</time>
   <time name="diis">   11.76   11.76</time>
   <time name="orth">    0.32    0.32</time>
   <time name="total">   15.45   15.46</time>
   <dipole>
    <v name="dipole">      0.00000000       0.00000000       0.45241102 </v>
    <i name="Tr[quadrupol]">  -5201.84195380 </i>
    <i name="Echarged">      0.00000000 </i>
    <i name="Edipol_quadrupol">      0.00000000 </i>
    <i name="Eion">      0.00000000 </i>
   </dipole>
   <energy>
    <i name="e_fr_energy">    -92.00543879 </i>
    <i name="e_wo_entrp">    -91.96078622 </i>
    <i name="e_0_energy">    -91.98311250 </i>
   </energy>
  </scstep>
  <scstep>
   <time name="diag">    2.39    2.39</time>
   <time name="diis">   11.55   11.55</time>
   <time name="orth">    0.30    0.30</time>
   <time name="total">   15.21   15.21</time>
   <dipole>
    <v name="dipole">      0.00000000       0.00000000      -0.09313297 </v>
    <i name="Tr[quadrupol]">  -5201.21664616 </i>
    <i name="Echarged">      0.00000000 </i>
    <i name="Edipol_quadrupol">      0.00000000 </i>
    <i name="Eion">      0.00000000 </i>
   </dipole>
   <energy>
    <i name="e_fr_energy">    -91.89769337 </i>
    <i name="e_wo_entrp">    -91.85858885 </i>
    <i name="e_0_energy">    -91.87814111 </i>
   </energy>
  </scstep>
  <scstep>
   <time name="diag">    2.40    2.40</time>
   <time name="diis">   11.92   11.92</time>
   <time name="orth">    0.30    0.30</time>
   <time name="total">   15.58   15.58</time>
   <dipole>
    <v name="dipole">      0.00000000       0.00000000       1.34746202 </v>
    <i name="Tr[quadrupol]">  -5203.74608647 </i>
    <i name="Echarged">      0.00000000 </i>
    <i name="Edipol_quadrupol">      0.00000000 </i>
    <i name="Eion">      0.00000000 </i>
   </dipole>
   <energy>
    <i name="e_fr_energy">    -96.52134881 </i>
    <i name="e_wo_entrp">    -96.43720063 </i>
    <i name="e_0_energy">    -96.47927472 </i>
   </energy>
  </scstep>
  <scstep>
   <time name="diag">    2.38    2.38</time>
   <time name="diis">   11.62   11.62</time>
   <time name="orth">    0.30    0.30</time>
   <time name="total">   15.27   15.28</time>
   <dipole>
    <v name="dipole">      0.00000000       0.00000000       0.43718917 </v>
    <i name="Tr[quadrupol]">  -5204.33900547 </i>
    <i name="Echarged">      0.00000000 </i>
    <i name="Edipol_quadrupol">      0.00000000 </i>
    <i name="Eion">      0.00000000 </i>
   </dipole>
   <energy>
    <i name="e_fr_energy">    -92.74821449 </i>
    <i name="e_wo_entrp">    -92.70421175 </i>
    <i name="e_0_energy">    -92.72621312 </i>
   </energy>
  </scstep>
  <scstep>
   <time name="diag">    2.39    2.39</time>
   <time name="diis">   11.76   11.77</time>
   <time name="orth">    0.30    0.30</time>
   <time name="total">   15.41   15.43</time>
   <dipole>
    <v name="dipole">      0.00000000       0.00000000       0.28473152 </v>
    <i name="Tr[quadrupol]">  -5202.85344081 </i>
    <i name="Echarged">      0.00000000 </i>
    <i name="Edipol_quadrupol">      0.00000000 </i>
    <i name="Eion">      0.00000000 </i>
   </dipole>
   <energy>
    <i name="e_fr_energy">    -92.22601340 </i>
    <i name="e_wo_entrp">    -92.18899920 </i>
    <i name="e_0_energy">    -92.20750630 </i>
   </energy>
  </scstep>
  <scstep>
   <time name="diag">    2.39    2.39</time>
   <time name="diis">   11.59   11.60</time>
   <time name="orth">    0.30    0.30</time>
   <time name="total">   15.25   15.26</time>
   <dipole>
    <v name="dipole">      0.00000000       0.00000000       0.35315475 </v>
    <i name="Tr[quadrupol]">  -5202.47037234 </i>
    <i name="Echarged">      0.00000000 </i>
    <i name="Edipol_quadrupol">      0.00000000 </i>
    <i name="Eion">      0.00000000 </i>
   </dipole>
   <energy>
    <i name="e_fr_energy">    -92.19450090 </i>
    <i name="e_wo_entrp">    -92.15789294 </i>
    <i name="e_0_energy">    -92.17619692 </i>
   </energy>
  </scstep>
  <scstep>
   <time name="diag">    2.39    2.39</time>
   <time name="diis">   11.61   11.62</time>
   <time name="orth">    0.30    0.30</time>
   <time name="total">   15.26   15.28</time>
   <dipole>
    <v name="dipole">      0.00000000       0.00000000       0.38968340 </v>
    <i name="Tr[quadrupol]">  -5202.19898771 </i>
    <i name="Echarged">      0.00000000 </i>
    <i name="Edipol_quadrupol">      0.00000000 </i>
    <i name="Eion">      0.00000000 </i>
   </dipole>
   <energy>
    <i name="e_fr_energy">    -92.21049865 </i>
    <i name="e_wo_entrp">    -92.17387544 </i>
    <i name="e_0_energy">    -92.19218705 </i>
   </energy>
  </scstep>
  <scstep>
   <time name="diag">    2.38    2.38</time>
   <time name="diis">    9.84    9.85</time>
   <time name="orth">    0.30    0.30</time>
   <time name="total">   13.49   13.50</time>
   <dipole>
    <v name="dipole">      0.00000000       0.00000000       0.42742757 </v>
    <i name="Tr[quadrupol]">  -5201.96312464 </i>
    <i name="Echarged">      0.00000000 </i>
    <i name="Edipol_quadrupol">      0.00000000 </i>
    <i name="Eion">      0.00000000 </i>
   </dipole>
   <energy>
    <i name="e_fr_energy">    -92.23754063 </i>
    <i name="e_wo_entrp">    -92.20080495 </i>
    <i name="e_0_energy">    -92.21917279 </i>
   </energy>
  </scstep>
  <scstep>
   <time name="diag">    2.40    2.40</time>
   <time name="diis">   11.78   11.78</time>
   <time name="orth">    0.30    0.30</time>
   <time name="total">   15.44   15.45</time>
   <dipole>
    <v name="dipole">      0.00000000       0.00000000       0.58103750 </v>
    <i name="Tr[quadrupol]">  -5201.01033445 </i>
    <i name="Echarged">      0.00000000 </i>
    <i name="Edipol_quadrupol">      0.00000000 </i>
    <i name="Eion">      0.00000000 </i>
   </dipole>
   <energy>
    <i name="e_fr_energy">    -92.39882028 </i>
    <i name="e_wo_entrp">    -92.36097611 </i>
    <i name="e_0_energy">    -92.37989820 </i>
   </energy>
  </scstep>
  <scstep>
   <time name="diag">    2.38    2.38</time>
   <time name="diis">   10.83   10.83</time>
   <time name="orth">    0.30    0.30</time>
   <time name="total">   14.49   14.49</time>
   <dipole>
    <v name="dipole">      0.00000000       0.00000000       0.64011727 </v>
    <i name="Tr[quadrupol]">  -5200.60618409 </i>
    <i name="Echarged">      0.00000000 </i>
    <i name="Edipol_quadrupol">      0.00000000 </i>
    <i name="Eion">      0.00000000 </i>
   </dipole>
   <energy>
    <i name="e_fr_energy">    -92.46903147 </i>
    <i name="e_wo_entrp">    -92.43032471 </i>
    <i name="e_0_energy">    -92.44967809 </i>
   </energy>
  </scstep>
  <scstep>
   <time name="diag">    2.39    2.39</time>
   <time name="diis">   10.31   10.31</time>
   <time name="orth">    0.36    0.36</time>
   <time name="total">   14.13   14.14</time>
   <dipole>
    <v name="dipole">      0.00000000       0.00000000       0.71074239 </v>
    <i name="Tr[quadrupol]">  -5200.38052658 </i>
    <i name="Echarged">      0.00000000 </i>
    <i name="Edipol_quadrupol">      0.00000000 </i>
    <i name="Eion">      0.00000000 </i>
   </dipole>
   <energy>
    <i name="e_fr_energy">    -92.52168025 </i>
    <i name="e_wo_entrp">    -92.48331464 </i>
    <i name="e_0_energy">    -92.50249745 </i>
   </energy>
  </scstep>
  <scstep>
   <time name="diag">    2.38    2.38</time>
   <time name="diis">    8.33    8.34</time>
   <time name="orth">    0.30    0.30</time>
   <time name="total">   11.98   11.99</time>
   <dipole>
    <v name="dipole">      0.00000000       0.00000000       0.73706598 </v>
    <i name="Tr[quadrupol]">  -5200.21358482 </i>
    <i name="Echarged">      0.00000000 </i>
    <i name="Edipol_quadrupol">      0.00000000 </i>
    <i name="Eion">      0.00000000 </i>
   </dipole>
   <energy>
    <i name="e_fr_energy">    -92.53691995 </i>
    <i name="e_wo_entrp">    -92.49799728 </i>
    <i name="e_0_energy">    -92.51745861 </i>
   </energy>
  </scstep>
  <scstep>
   <time name="diag">    2.39    2.39</time>
   <time name="diis">    7.72    7.73</time>
   <time name="orth">    0.30    0.30</time>
   <time name="total">   11.38   11.38</time>
   <dipole>
    <v name="dipole">      0.00000000       0.00000000       0.74402280 </v>
    <i name="Tr[quadrupol]">  -5200.24263262 </i>
    <i name="Echarged">      0.00000000 </i>
    <i name="Edipol_quadrupol">      0.00000000 </i>
    <i name="Eion">      0.00000000 </i>
   </dipole>
   <energy>
    <i name="e_fr_energy">    -92.53930187 </i>
    <i name="e_wo_entrp">    -92.50075334 </i>
    <i name="e_0_energy">    -92.52002761 </i>
   </energy>
  </scstep>
  <scstep>
   <time name="diag">    2.39    2.40</time>
   <time name="diis">    7.79    7.79</time>
   <time name="orth">    0.30    0.30</time>
   <time name="total">   11.45   11.46</time>
   <dipole>
    <v name="dipole">      0.00000000       0.00000000       0.75842798 </v>
    <i name="Tr[quadrupol]">  -5200.21888693 </i>
    <i name="Echarged">      0.00000000 </i>
    <i name="Edipol_quadrupol">      0.00000000 </i>
    <i name="Eion">      0.00000000 </i>
   </dipole>
   <energy>
    <i name="e_fr_energy">    -92.54395899 </i>
    <i name="e_wo_entrp">    -92.50569807 </i>
    <i name="e_0_energy">    -92.52482853 </i>
   </energy>
  </scstep>
  <scstep>
   <time name="diag">    2.39    2.40</time>
   <time name="diis">    7.36    7.36</time>
   <time name="orth">    0.30    0.30</time>
   <time name="total">   11.02   11.02</time>
   <dipole>
    <v name="dipole">      0.00000000       0.00000000       0.77503807 </v>
    <i name="Tr[quadrupol]">  -5200.15357442 </i>
    <i name="Echarged">      0.00000000 </i>
    <i name="Edipol_quadrupol">      0.00000000 </i>
    <i name="Eion">      0.00000000 </i>
   </dipole>
   <energy>
    <i name="e_fr_energy">    -92.54836555 </i>
    <i name="e_wo_entrp">    -92.51015020 </i>
    <i name="e_0_energy">    -92.52925788 </i>
   </energy>
  </scstep>
  <scstep>
   <time name="diag">    2.38    2.38</time>
   <time name="diis">    7.40    7.40</time>
   <time name="orth">    0.30    0.30</time>
   <time name="total">   11.05   11.05</time>
   <dipole>
    <v name="dipole">      0.00000000       0.00000000       0.78567435 </v>
    <i name="Tr[quadrupol]">  -5200.25583169 </i>
    <i name="Echarged">      0.00000000 </i>
    <i name="Edipol_quadrupol">      0.00000000 </i>
    <i name="Eion">      0.00000000 </i>
   </dipole>
   <energy>
    <i name="e_fr_energy">    -92.55080400 </i>
    <i name="e_wo_entrp">    -92.51275552 </i>
    <i name="e_0_energy">    -92.53177976 </i>
   </energy>
  </scstep>
  <scstep>
   <time name="diag">    2.74    2.75</time>
   <time name="diis">    6.47    6.47</time>
   <time name="orth">    0.30    0.30</time>
   <time name="total">   10.47   10.48</time>
   <dipole>
    <v name="dipole">      0.00000000       0.00000000       0.79093849 </v>
    <i name="Tr[quadrupol]">  -5200.48789821 </i>
    <i name="Echarged">      0.00000000 </i>
    <i name="Edipol_quadrupol">      0.00000000 </i>
    <i name="Eion">      0.00000000 </i>
   </dipole>
   <energy>
    <i name="e_fr_energy">    -92.55149409 </i>
    <i name="e_wo_entrp">    -92.51349258 </i>
    <i name="e_0_energy">    -92.53249333 </i>
   </energy>
  </scstep>
  <scstep>
   <time name="diag">    2.38    2.39</time>
   <time name="diis">    5.66    5.66</time>
   <time name="orth">    0.30    0.30</time>
   <time name="total">    8.47    8.48</time>
   <dipole>
    <v name="dipole">      0.00000000       0.00000000       0.79044655 </v>
    <i name="Tr[quadrupol]">  -5200.97387626 </i>
    <i name="Echarged">      0.00000000 </i>
    <i name="Edipol_quadrupol">      0.00000000 </i>
    <i name="Eion">      0.00000000 </i>
   </dipole>
   <energy>
    <i name="alphaZ">    717.67708609 </i>
    <i name="ewald"> 106713.52577095 </i>
    <i name="hartreedc">-144810.77241571 </i>
    <i name="XCdc">   -378.93788385 </i>
    <i name="pawpsdc">  40019.97434193 </i>
    <i name="pawaedc"> -38441.14038291 </i>
    <i name="eentropy">     -0.03798239 </i>
    <i name="bandstr">  -1663.86051134 </i>
    <i name="atom">  37751.02038712 </i>
    <i name="e_fr_energy">    -92.55159009 </i>
    <i name="e_wo_entrp">    -92.51360770 </i>
    <i name="e_0_energy">    -92.53259890 </i>
   </energy>
  </scstep>
  <structure>
   <crystal>
    <varray name="basis" >
     <v>       8.64225908       0.00000000       0.00000000 </v>
     <v>       0.00000000       8.64225908       0.00000000 </v>
     <v>       0.00000000       0.00000000      22.11100000 </v>
    </varray>
    <i name="volume">   1651.44056326 </i>
    <varray name="rec_basis" >
     <v>       0.11571049       0.00000000       0.00000000 </v>
     <v>       0.00000000       0.11571049       0.00000000 </v>
     <v>       0.00000000       0.00000000       0.04522636 </v>
    </varray>
   </crystal>
   <varray name="positions" >
    <v>       0.17000000       0.17000000       0.40986371 </v>
    <v>       0.00000000       0.00000000       0.27870728 </v>
    <v>       0.33333333       0.00000000       0.27870728 </v>
    <v>       0.66666667       0.00000000       0.27870728 </v>
    <v>       0.00000000       0.33333333       0.27870728 </v>
    <v>       0.33333333       0.33333333       0.27870728 </v>
    <v>       0.66666667       0.33333333       0.27870728 </v>
    <v>       0.00000000       0.66666667       0.27870728 </v>
    <v>       0.33333333       0.66666667       0.27870728 </v>
    <v>       0.66666667       0.66666667       0.27870728 </v>
    <v>       0.16666667       0.16666667       0.18558292 </v>
    <v>       0.50000000       0.16666667       0.18558292 </v>
    <v>       0.83333333       0.16666667       0.18558292 </v>
    <v>       0.16666667       0.50000000       0.18558292 </v>
    <v>       0.50000000       0.50000000       0.18558292 </v>
    <v>       0.83333333       0.50000000       0.18558292 </v>
    <v>       0.16666667       0.83333333       0.18558292 </v>
    <v>       0.50000000       0.83333333       0.18558292 </v>
    <v>       0.83333333       0.83333333       0.18558292 </v>
    <v>       0.00000000       0.00000000       0.09212609 </v>
    <v>       0.33333333       0.00000000       0.09212609 </v>
    <v>       0.66666667       0.00000000       0.09212609 </v>
    <v>       0.00000000       0.33333333       0.09212609 </v>
    <v>       0.33333333       0.33333333       0.09212609 </v>
    <v>       0.66666667       0.33333333       0.09212609 </v>
    <v>       0.00000000       0.66666667       0.09212609 </v>
    <v>       0.33333333       0.66666667       0.09212609 </v>
    <v>       0.66666667       0.66666667       0.09212609 </v>
    <v>       0.16666667       0.16666667       0.00000000 </v>
    <v>       0.50000000       0.16666667       0.00000000 </v>
    <v>       0.83333333       0.16666667       0.00000000 </v>
    <v>       0.16666667       0.50000000       0.00000000 </v>
    <v>       0.50000000       0.50000000       0.00000000 </v>
    <v>       0.83333333       0.50000000       0.00000000 </v>
    <v>       0.16666667       0.83333333       0.00000000 </v>
    <v>       0.50000000       0.83333333       0.00000000 </v>
    <v>       0.83333333       0.83333333       0.00000000 </v>
   </varray>
  </structure>
  <varray name="forces" >
   <v>       0.00210261       0.00210261      -1.42327653 </v>
   <v>       0.06601434       0.06601434       0.30035879 </v>
   <v>      -0.06643851       0.06980161       0.31738198 </v>
   <v>      -0.00037933      -0.00780743      -0.02703141 </v>
   <v>       0.06980161      -0.06643851       0.31738198 </v>
   <v>      -0.07139345      -0.07139345       0.33346676 </v>
   <v>       0.00078477       0.00754269      -0.02701221 </v>
   <v>      -0.00780743      -0.00037933      -0.02703141 </v>
   <v>       0.00754269       0.00078477      -0.02701221 </v>
   <v>       0.00019083       0.00019083      -0.00953045 </v>
   <v>       0.00036677       0.00036677      -0.02569224 </v>
   <v>      -0.03021002      -0.00024072       0.03430565 </v>
   <v>       0.02978421       0.00081475       0.03466565 </v>
   <v>      -0.00024072      -0.03021002       0.03430565 </v>
   <v>      -0.02852722      -0.02852722       0.04720621 </v>
   <v>       0.02862918      -0.02735426       0.04583611 </v>
   <v>       0.00081475       0.02978421       0.03466565 </v>
   <v>      -0.02735426       0.02862918       0.04583611 </v>
   <v>       0.02640584       0.02640584       0.04419435 </v>
   <v>       0.00337349       0.00337349       0.04442151 </v>
   <v>      -0.00236945       0.00348483       0.04535607 </v>
   <v>      -0.00102063       0.01310960       0.05051875 </v>
   <v>       0.00348483      -0.00236945       0.04535607 </v>
   <v>      -0.00357492      -0.00357492       0.04626925 </v>
   <v>       0.00007711      -0.01255181       0.05098957 </v>
   <v>       0.01310960      -0.00102063       0.05051875 </v>
   <v>      -0.01255181       0.00007711       0.05098957 </v>
   <v>      -0.00058553      -0.00058553       0.07422116 </v>
   <v>       0.00019732       0.00019732      -0.04760639 </v>
   <v>      -0.00585894       0.00006380      -0.05786949 </v>
   <v>       0.00564727       0.00040165      -0.05813059 </v>
   <v>       0.00006380      -0.00585894      -0.05786949 </v>
   <v>      -0.00933793      -0.00933793      -0.05073038 </v>
   <v>       0.00926637      -0.00936047      -0.05052589 </v>
   <v>       0.00040165       0.00564727      -0.05813059 </v>
   <v>      -0.00936047       0.00926637      -0.05052589 </v>
   <v>       0.00895162       0.00895162      -0.05027045 </v>
  </varray>
  <varray name="stress" >
   <v>     -13.25732117      -0.00007359       0.00624451 </v>
   <v>      -0.00007359     -13.25732117       0.00624451 </v>
   <v>       0.00624451       0.00624451      -5.41835018 </v>
  </varray>
  <energy>
   <i name="e_fr_energy">   -105.24974159 </i>
   <i name="e_wo_entrp">   -105.23075040 </i>
   <i name="e_0_energy">     -0.03798239 </i>
  </energy>
  <time name="totalsc">  352.40  352.64</time>
 </calculation>
 <calculation>
  <scstep>
   <time name="dav">   17.77   17.78</time>
   <time name="total">   18.73   18.74</time>
   <dipole>
    <v name="dipole">      0.00000000       0.00000000       0.79147726 </v>
    <i name="Tr[quadrupol]">  -5201.32670964 </i>
    <i name="Echarged">      0.00000000 </i>
    <i name="Edipol_quadrupol">      0.00000000 </i>
    <i name="Eion">      0.00000000 </i>
   </dipole>
   <energy>
    <i name="alphaZ">    728.44901230 </i>
    <i name="ewald"> 106711.23523536 </i>
    <i name="hartreedc">-144808.39571144 </i>
    <i name="XCdc">   -378.93966536 </i>
    <i name="pawpsdc">  40019.70915211 </i>
    <i name="pawaedc"> -38440.87122143 </i>
    <i name="eentropy">     -0.03802671 </i>
    <i name="bandstr">  -1674.72860340 </i>
    <i name="atom">  37751.02038712 </i>
    <i name="e_fr_energy">    -92.55944144 </i>
    <i name="e_wo_entrp">    -92.52141473 </i>
    <i name="e_0_energy">    -92.54042809 </i>
   </energy>
  </scstep>
  <scstep>
   <time name="diag">    2.39    2.39</time>
   <time name="diis">    8.11    8.12</time>
   <time name="orth">    0.30    0.30</time>
   <time name="total">   11.76   11.77</time>
   <dipole>
    <v name="dipole">      0.00000000       0.00000000       0.78886581 </v>
    <i name="Tr[quadrupol]">  -5201.45335592 </i>
    <i name="Echarged">      0.00000000 </i>
    <i name="Edipol_quadrupol">      0.00000000 </i>
    <i name="Eion">      0.00000000 </i>
   </dipole>
   <energy>
    <i name="e_fr_energy">    -92.55963808 </i>
    <i name="e_wo_entrp">    -92.52167930 </i>
    <i name="e_0_energy">    -92.54065869 </i>
   </energy>
  </scstep>
  <scstep>
   <time name="diag">    2.38    2.38</time>
   <time name="diis">    6.92    6.93</time>
   <time name="orth">    0.30    0.30</time>
   <time name="total">    9.73    9.74</time>
   <dipole>
    <v name="dipole">      0.00000000       0.00000000       0.79113017 </v>
    <i name="Tr[quadrupol]">  -5201.45773280 </i>
    <i name="Echarged">      0.00000000 </i>
    <i name="Edipol_quadrupol">      0.00000000 </i>
    <i name="Eion">      0.00000000 </i>
   </dipole>
   <energy>
    <i name="alphaZ">    731.11282193 </i>
    <i name="ewald"> 106711.23523536 </i>
    <i name="hartreedc">-144808.71158568 </i>
    <i name="XCdc">   -378.94058280 </i>
    <i name="pawpsdc">  40019.61041120 </i>
    <i name="pawaedc"> -38440.76887000 </i>
    <i name="eentropy">     -0.03800535 </i>
    <i name="bandstr">  -1677.07945383 </i>
    <i name="atom">  37751.02038712 </i>
    <i name="e_fr_energy">    -92.55964204 </i>
    <i name="e_wo_entrp">    -92.52163669 </i>
    <i name="e_0_energy">    -92.54063936 </i>
   </energy>
  </scstep>
  <structure>
   <crystal>
    <varray name="basis" >
     <v>       8.64225908       0.00000000       0.00000000 </v>
     <v>       0.00000000       8.64225908       0.00000000 </v>
     <v>       0.00000000       0.00000000      22.11100000 </v>
    </varray>
    <i name="volume">   1651.44056326 </i>
    <varray name="rec_basis" >
     <v>       0.11571049       0.00000000       0.00000000 </v>
     <v>       0.00000000       0.11571049       0.00000000 </v>
     <v>       0.00000000       0.00000000       0.04522636 </v>
    </varray>
   </crystal>
   <varray name="positions" >
    <v>       0.17000077       0.17000077       0.40965987 </v>
    <v>       0.00002419       0.00002419       0.27875029 </v>
    <v>       0.33330899       0.00002558       0.27875273 </v>
    <v>       0.66666653      -0.00000286       0.27870340 </v>
    <v>       0.00002558       0.33330899       0.27875273 </v>
    <v>       0.33330717       0.33330717       0.27875504 </v>
    <v>       0.66666695       0.33333610       0.27870341 </v>
    <v>      -0.00000286       0.66666653       0.27870340 </v>
    <v>       0.33333610       0.66666695       0.27870341 </v>
    <v>       0.66666674       0.66666674       0.27870591 </v>
    <v>       0.16666680       0.16666680       0.18557924 </v>
    <v>       0.49998893       0.16666658       0.18558783 </v>
    <v>       0.83334425       0.16666697       0.18558788 </v>
    <v>       0.16666658       0.49998893       0.18558783 </v>
    <v>       0.49998955       0.49998955       0.18558968 </v>
    <v>       0.83334382       0.49998998       0.18558948 </v>
    <v>       0.16666697       0.83334425       0.18558788 </v>
    <v>       0.49998998       0.83334382       0.18558948 </v>
    <v>       0.83334301       0.83334301       0.18558924 </v>
    <v>       0.00000000       0.00000000       0.09212609 </v>
    <v>       0.33333333       0.00000000       0.09212609 </v>
    <v>       0.66666667       0.00000000       0.09212609 </v>
    <v>       0.00000000       0.33333333       0.09212609 </v>
    <v>       0.33333333       0.33333333       0.09212609 </v>
    <v>       0.66666667       0.33333333       0.09212609 </v>
    <v>       0.00000000       0.66666667       0.09212609 </v>
    <v>       0.33333333       0.66666667       0.09212609 </v>
    <v>       0.66666667       0.66666667       0.09212609 </v>
    <v>       0.16666667       0.16666667       0.00000000 </v>
    <v>       0.50000000       0.16666667       0.00000000 </v>
    <v>       0.83333333       0.16666667       0.00000000 </v>
    <v>       0.16666667       0.50000000       0.00000000 </v>
    <v>       0.50000000       0.50000000       0.00000000 </v>
    <v>       0.83333333       0.50000000       0.00000000 </v>
    <v>       0.16666667       0.83333333       0.00000000 </v>
    <v>       0.50000000       0.83333333       0.00000000 </v>
    <v>       0.83333333       0.83333333       0.00000000 </v>
   </varray>
  </structure>
  <varray name="forces" >
   <v>       0.00214419       0.00214419      -1.41367309 </v>
   <v>       0.06413082       0.06413082       0.29337327 </v>
   <v>      -0.06455223       0.06781824       0.31000942 </v>
   <v>      -0.00037528      -0.00720752      -0.02586389 </v>
   <v>       0.06781824      -0.06455223       0.31000942 </v>
   <v>      -0.06949929      -0.06949929       0.32556856 </v>
   <v>       0.00074016       0.00696839      -0.02577701 </v>
   <v>      -0.00720752      -0.00037528      -0.02586389 </v>
   <v>       0.00696839       0.00074016      -0.02577701 </v>
   <v>       0.00017919       0.00017919      -0.00917096 </v>
   <v>       0.00040165       0.00040165      -0.02184186 </v>
   <v>      -0.03018091      -0.00018178       0.03520872 </v>
   <v>       0.02973048       0.00082414       0.03548470 </v>
   <v>      -0.00018178      -0.03018091       0.03520872 </v>
   <v>      -0.02814796      -0.02814796       0.04696560 </v>
   <v>       0.02819757      -0.02697155       0.04556135 </v>
   <v>       0.00082414       0.02973048       0.03548470 </v>
   <v>      -0.02697155       0.02819757       0.04556135 </v>
   <v>       0.02602609       0.02602609       0.04392360 </v>
   <v>       0.00328917       0.00328917       0.04513640 </v>
   <v>      -0.00227811       0.00340299       0.04606378 </v>
   <v>      -0.00102152       0.01312338       0.05166418 </v>
   <v>       0.00340299      -0.00227811       0.04606378 </v>
   <v>      -0.00348352      -0.00348352       0.04698209 </v>
   <v>       0.00007376      -0.01254244       0.05214341 </v>
   <v>       0.01312338      -0.00102152       0.05166418 </v>
   <v>      -0.01254244       0.00007376       0.05214341 </v>
   <v>      -0.00060170      -0.00060170       0.07573646 </v>
   <v>       0.00020191       0.00020191      -0.04778516 </v>
   <v>      -0.00586703       0.00006490      -0.05793279 </v>
   <v>       0.00565917       0.00040440      -0.05818997 </v>
   <v>       0.00006490      -0.00586703      -0.05793279 </v>
   <v>      -0.00941424      -0.00941424      -0.05070946 </v>
   <v>       0.00934814      -0.00943896      -0.05050269 </v>
   <v>       0.00040440       0.00565917      -0.05818997 </v>
   <v>      -0.00943896       0.00934814      -0.05050269 </v>
   <v>       0.00903528       0.00903528      -0.05024389 </v>
  </varray>
  <varray name="stress" >
   <v>     -13.28597024      -0.00042175       0.00642104 </v>
   <v>      -0.00042175     -13.28597024       0.00642104 </v>
   <v>       0.00642102       0.00642102      -5.42301368 </v>
  </varray>
  <energy>
   <i name="e_fr_energy">   -105.25781115 </i>
   <i name="e_wo_entrp">   -105.23880847 </i>
   <i name="e_0_energy">     -0.03800535 </i>
  </energy>
  <time name="totalsc">   58.81   58.85</time>
 </calculation>
 <calculation>
  <scstep>
   <time name="dav">   17.41   17.42</time>
   <time name="total">   18.38   18.40</time>
   <dipole>
    <v name="dipole">      0.00000000       0.00000000       0.78942530 </v>
    <i name="Tr[quadrupol]">  -5196.65827664 </i>
    <i name="Echarged">      0.00000000 </i>
    <i name="Edipol_quadrupol">      0.00000000 </i>
    <i name="Eion">      0.00000000 </i>
   </dipole>
   <energy>
    <i name="alphaZ">    730.95279941 </i>
    <i name="ewald"> 106629.31315116 </i>
    <i name="hartreedc">-144727.30433702 </i>
    <i name="XCdc">   -379.02366780 </i>
    <i name="pawpsdc">  40019.53291361 </i>
    <i name="pawaedc"> -38440.69107925 </i>
    <i name="eentropy">     -0.04004144 </i>
    <i name="bandstr">  -1676.31552340 </i>
    <i name="atom">  37751.02038712 </i>
    <i name="e_fr_energy">    -92.55539761 </i>
    <i name="e_wo_entrp">    -92.51535617 </i>
    <i name="e_0_energy">    -92.53537689 </i>
   </energy>
  </scstep>
  <scstep>
   <time name="diag">    2.39    2.39</time>
   <time name="diis">   11.88   11.89</time>
   <time name="orth">    0.30    0.30</time>
   <time name="total">   15.53   15.53</time>
   <dipole>
    <v name="dipole">      0.00000000       0.00000000       0.69669331 </v>
    <i name="Tr[quadrupol]">  -5196.99141898 </i>
    <i name="Echarged">      0.00000000 </i>
    <i name="Edipol_quadrupol">      0.00000000 </i>
    <i name="Eion">      0.00000000 </i>
   </dipole>
   <energy>
    <i name="e_fr_energy">    -92.91911333 </i>
    <i name="e_wo_entrp">    -92.88189887 </i>
    <i name="e_0_energy">    -92.90050610 </i>
   </energy>
  </scstep>
  <scstep>
   <time name="diag">    2.38    2.38</time>
   <time name="diis">   11.67   11.68</time>
   <time name="orth">    0.30    0.30</time>
   <time name="total">   15.31   15.32</time>
   <dipole>
    <v name="dipole">      0.00000000       0.00000000       0.79371738 </v>
    <i name="Tr[quadrupol]">  -5197.51170503 </i>
    <i name="Echarged">      0.00000000 </i>
    <i name="Edipol_quadrupol">      0.00000000 </i>
    <i name="Eion">      0.00000000 </i>
   </dipole>
   <energy>
    <i name="e_fr_energy">    -92.89135092 </i>
    <i name="e_wo_entrp">    -92.85271740 </i>
    <i name="e_0_energy">    -92.87203416 </i>
   </energy>
  </scstep>
  <scstep>
   <time name="diag">    2.39    2.39</time>
   <time name="diis">   11.81   11.82</time>
   <time name="orth">    0.30    0.30</time>
   <time name="total">   15.46   15.47</time>
   <dipole>
    <v name="dipole">      0.00000000       0.00000000       0.72889275 </v>
    <i name="Tr[quadrupol]">  -5197.35563043 </i>
    <i name="Echarged">      0.00000000 </i>
    <i name="Edipol_quadrupol">      0.00000000 </i>
    <i name="Eion">      0.00000000 </i>
   </dipole>
   <energy>
    <i name="e_fr_energy">    -92.87992385 </i>
    <i name="e_wo_entrp">    -92.84196459 </i>
    <i name="e_0_energy">    -92.86094422 </i>
   </energy>
  </scstep>
  <scstep>
   <time name="diag">    2.42    2.42</time>
   <time name="diis">    9.34    9.35</time>
   <time name="orth">    0.30    0.30</time>
   <time name="total">   13.02   13.03</time>
   <dipole>
    <v name="dipole">      0.00000000       0.00000000       0.73080561 </v>
    <i name="Tr[quadrupol]">  -5197.46460586 </i>
    <i name="Echarged">      0.00000000 </i>
    <i name="Edipol_quadrupol">      0.00000000 </i>
    <i name="Eion">      0.00000000 </i>
   </dipole>
   <energy>
    <i name="e_fr_energy">    -92.87204805 </i>
    <i name="e_wo_entrp">    -92.83386731 </i>
    <i name="e_0_energy">    -92.85295768 </i>
   </energy>
  </scstep>
  <scstep>
   <time name="diag">    2.39    2.39</time>
   <time name="diis">    8.52    8.53</time>
   <time name="orth">    0.30    0.30</time>
   <time name="total">   12.16   12.18</time>
   <dipole>
    <v name="dipole">      0.00000000       0.00000000       0.72055184 </v>
    <i name="Tr[quadrupol]">  -5197.66811474 </i>
    <i name="Echarged">      0.00000000 </i>
    <i name="Edipol_quadrupol">      0.00000000 </i>
    <i name="Eion">      0.00000000 </i>
   </dipole>
   <energy>
    <i name="e_fr_energy">    -92.87000009 </i>
    <i name="e_wo_entrp">    -92.83183828 </i>
    <i name="e_0_energy">    -92.85091918 </i>
   </energy>
  </scstep>
  <scstep>
   <time name="diag">    2.38    2.38</time>
   <time name="diis">   10.02   10.03</time>
   <time name="orth">    0.30    0.30</time>
   <time name="total">   13.67   13.68</time>
   <dipole>
    <v name="dipole">      0.00000000       0.00000000       0.70601703 </v>
    <i name="Tr[quadrupol]">  -5197.81813264 </i>
    <i name="Echarged">      0.00000000 </i>
    <i name="Edipol_quadrupol">      0.00000000 </i>
    <i name="Eion">      0.00000000 </i>
   </dipole>
   <energy>
    <i name="e_fr_energy">    -92.86827715 </i>
    <i name="e_wo_entrp">    -92.82997118 </i>
    <i name="e_0_energy">    -92.84912417 </i>
   </energy>
  </scstep>
  <scstep>
   <time name="diag">    2.39    2.39</time>
   <time name="diis">    7.33    7.33</time>
   <time name="orth">    0.30    0.30</time>
   <time name="total">   10.97   10.98</time>
   <dipole>
    <v name="dipole">      0.00000000       0.00000000       0.69594665 </v>
    <i name="Tr[quadrupol]">  -5197.88654496 </i>
    <i name="Echarged">      0.00000000 </i>
    <i name="Edipol_quadrupol">      0.00000000 </i>
    <i name="Eion">      0.00000000 </i>
   </dipole>
   <energy>
    <i name="e_fr_energy">    -92.86812044 </i>
    <i name="e_wo_entrp">    -92.82985168 </i>
    <i name="e_0_energy">    -92.84898606 </i>
   </energy>
  </scstep>
  <scstep>
   <time name="diag">    2.57    2.57</time>
   <time name="diis">    7.02    7.03</time>
   <time name="orth">    0.30    0.30</time>
   <time name="total">   10.03   10.03</time>
   <dipole>
    <v name="dipole">      0.00000000       0.00000000       0.68997073 </v>
    <i name="Tr[quadrupol]">  -5197.93541907 </i>
    <i name="Echarged">      0.00000000 </i>
    <i name="Edipol_quadrupol">      0.00000000 </i>
    <i name="Eion">      0.00000000 </i>
   </dipole>
   <energy>
    <i name="alphaZ">    734.73426891 </i>
    <i name="ewald"> 106629.31315116 </i>
    <i name="hartreedc">-144754.09898235 </i>
    <i name="XCdc">   -378.99833112 </i>
    <i name="pawpsdc">  40003.81311213 </i>
    <i name="pawaedc"> -38424.60036630 </i>
    <i name="eentropy">     -0.03825835 </i>
    <i name="bandstr">  -1654.01315347 </i>
    <i name="atom">  37751.02038712 </i>
    <i name="e_fr_energy">    -92.86817227 </i>
    <i name="e_wo_entrp">    -92.82991392 </i>
    <i name="e_0_energy">    -92.84904309 </i>
   </energy>
  </scstep>
  <structure>
   <crystal>
    <varray name="basis" >
     <v>       8.64225908       0.00000000       0.00000000 </v>
     <v>       0.00000000       8.64225908       0.00000000 </v>
     <v>       0.00000000       0.00000000      22.11100000 </v>
    </varray>
    <i name="volume">   1651.44056326 </i>
    <varray name="rec_basis" >
     <v>       0.11571049       0.00000000       0.00000000 </v>
     <v>       0.00000000       0.11571049       0.00000000 </v>
     <v>       0.00000000       0.00000000       0.04522636 </v>
    </varray>
   </crystal>
   <varray name="positions" >
    <v>       0.17003251       0.17003251       0.40148127 </v>
    <v>       0.00097343       0.00097343       0.28044756 </v>
    <v>       0.33235351       0.00102940       0.28054625 </v>
    <v>       0.66666097      -0.00010954       0.27855377 </v>
    <v>       0.00102940       0.33235351       0.28054625 </v>
    <v>       0.33227847       0.33227847       0.28063856 </v>
    <v>       0.66667791       0.33343924       0.27855428 </v>
    <v>      -0.00010954       0.66666097       0.27855377 </v>
    <v>       0.33343924       0.66667791       0.27855428 </v>
    <v>       0.66666939       0.66666939       0.27865285 </v>
    <v>       0.16667275       0.16667275       0.18545287 </v>
    <v>       0.49954220       0.16666389       0.18579152 </v>
    <v>       0.83378431       0.16667916       0.18579317 </v>
    <v>       0.16666389       0.49954220       0.18579152 </v>
    <v>       0.49957291       0.49957291       0.18586139 </v>
    <v>       0.83376120       0.49959075       0.18585307 </v>
    <v>       0.16667916       0.83378431       0.18579317 </v>
    <v>       0.49959075       0.83376120       0.18585307 </v>
    <v>       0.83372824       0.83372824       0.18584336 </v>
    <v>       0.00000000       0.00000000       0.09212609 </v>
    <v>       0.33333333       0.00000000       0.09212609 </v>
    <v>       0.66666667       0.00000000       0.09212609 </v>
    <v>       0.00000000       0.33333333       0.09212609 </v>
    <v>       0.33333333       0.33333333       0.09212609 </v>
    <v>       0.66666667       0.33333333       0.09212609 </v>
    <v>       0.00000000       0.66666667       0.09212609 </v>
    <v>       0.33333333       0.66666667       0.09212609 </v>
    <v>       0.66666667       0.66666667       0.09212609 </v>
    <v>       0.16666667       0.16666667       0.00000000 </v>
    <v>       0.50000000       0.16666667       0.00000000 </v>
    <v>       0.83333333       0.16666667       0.00000000 </v>
    <v>       0.16666667       0.50000000       0.00000000 </v>
    <v>       0.50000000       0.50000000       0.00000000 </v>
    <v>       0.83333333       0.50000000       0.00000000 </v>
    <v>       0.16666667       0.83333333       0.00000000 </v>
    <v>       0.50000000       0.83333333       0.00000000 </v>
    <v>       0.83333333       0.83333333       0.00000000 </v>
   </varray>
  </structure>
  <varray name="forces" >
   <v>       0.00383008       0.00383008      -1.34847856 </v>
   <v>       0.02096692       0.02096692       0.20007114 </v>
   <v>      -0.02282741       0.02252891       0.21358793 </v>
   <v>       0.00003444       0.00092263      -0.01854024 </v>
   <v>       0.02252891      -0.02282741       0.21358793 </v>
   <v>      -0.02324201      -0.02324201       0.22629979 </v>
   <v>      -0.00002072      -0.00075749      -0.01980841 </v>
   <v>       0.00092263       0.00003444      -0.01854024 </v>
   <v>      -0.00075749      -0.00002072      -0.01980841 </v>
   <v>      -0.00011960      -0.00011960      -0.00463283 </v>
   <v>       0.00156561       0.00156561       0.04420354 </v>
   <v>      -0.05101501       0.00135950       0.06019758 </v>
   <v>       0.04960725       0.00101818       0.05842017 </v>
   <v>       0.00135950      -0.05101501       0.06019758 </v>
   <v>      -0.03684412      -0.03684412       0.04804027 </v>
   <v>       0.03518797      -0.03446318       0.04446766 </v>
   <v>       0.00101818       0.04960725       0.05842017 </v>
   <v>      -0.03446318       0.03518797       0.04446766 </v>
   <v>       0.03308886       0.03308886       0.04207752 </v>
   <v>      -0.00052975      -0.00052975       0.04799055 </v>
   <v>       0.00143673      -0.00033702       0.04867215 </v>
   <v>      -0.00104694       0.01325712       0.07096334 </v>
   <v>      -0.00033702       0.00143673       0.04867215 </v>
   <v>       0.00025333       0.00025333       0.04976389 </v>
   <v>      -0.00005057      -0.01222335       0.07185563 </v>
   <v>       0.01325712      -0.00104694       0.07096334 </v>
   <v>      -0.01222335      -0.00005057       0.07185563 </v>
   <v>      -0.00118681      -0.00118681       0.10944390 </v>
   <v>       0.00018451       0.00018451      -0.04850325 </v>
   <v>      -0.00622107       0.00007329      -0.05741516 </v>
   <v>       0.00588196       0.00040233      -0.05766305 </v>
   <v>       0.00007329      -0.00622107      -0.05741516 </v>
   <v>      -0.01036232      -0.01036232      -0.04919555 </v>
   <v>       0.01017366      -0.01040523      -0.04896476 </v>
   <v>       0.00040233       0.00588196      -0.05766305 </v>
   <v>      -0.01040523       0.01017366      -0.04896476 </v>
   <v>       0.00987933       0.00987933      -0.04862610 </v>
  </varray>
  <varray name="stress" >
   <v>     -13.81274293      -0.00187448       0.01241527 </v>
   <v>      -0.00187448     -13.81274293       0.01241527 </v>
   <v>       0.01241530       0.01241530      -5.78223626 </v>
  </varray>
  <energy>
   <i name="e_fr_energy">   -105.55866422 </i>
   <i name="e_wo_entrp">   -105.53953505 </i>
   <i name="e_0_energy">     -0.03825835 </i>
  </energy>
  <time name="totalsc">  142.98  143.12</time>
 </calculation>
 <calculation>
  <scstep>
   <time name="dav">   17.75   17.75</time>
   <time name="total">   18.71   18.71</time>
   <dipole>
    <v name="dipole">      0.00000000       0.00000000       0.68201515 </v>
    <i name="Tr[quadrupol]">  -5192.94124213 </i>
    <i name="Echarged">      0.00000000 </i>
    <i name="Edipol_quadrupol">      0.00000000 </i>
    <i name="Eion">      0.00000000 </i>
   </dipole>
   <energy>
    <i name="alphaZ">    734.13735771 </i>
    <i name="ewald"> 106634.31398225 </i>
    <i name="hartreedc">-144760.43276132 </i>
    <i name="XCdc">   -378.98196435 </i>
    <i name="pawpsdc">  40003.98685471 </i>
    <i name="pawaedc"> -38424.76879148 </i>
    <i name="eentropy">     -0.04028902 </i>
    <i name="bandstr">  -1652.05128879 </i>
    <i name="atom">  37751.02038712 </i>
    <i name="e_fr_energy">    -92.81651318 </i>
    <i name="e_wo_entrp">    -92.77622416 </i>
    <i name="e_0_energy">    -92.79636867 </i>
   </energy>
  </scstep>
  <scstep>
   <time name="diag">    2.38    2.38</time>
   <time name="diis">   11.82   11.82</time>
   <time name="orth">    0.30    0.30</time>
   <time name="total">   15.45   15.45</time>
   <dipole>
    <v name="dipole">      0.00000000       0.00000000       0.58414548 </v>
    <i name="Tr[quadrupol]">  -5193.08779005 </i>
    <i name="Echarged">      0.00000000 </i>
    <i name="Edipol_quadrupol">      0.00000000 </i>
    <i name="Eion">      0.00000000 </i>
   </dipole>
   <energy>
    <i name="e_fr_energy">    -93.20084941 </i>
    <i name="e_wo_entrp">    -93.16270112 </i>
    <i name="e_0_energy">    -93.18177526 </i>
   </energy>
  </scstep>
  <scstep>
   <time name="diag">    2.37    2.37</time>
   <time name="diis">   11.68   11.68</time>
   <time name="orth">    0.30    0.30</time>
   <time name="total">   15.30   15.31</time>
   <dipole>
    <v name="dipole">      0.00000000       0.00000000       0.67397288 </v>
    <i name="Tr[quadrupol]">  -5193.55325165 </i>
    <i name="Echarged">      0.00000000 </i>
    <i name="Edipol_quadrupol">      0.00000000 </i>
    <i name="Eion">      0.00000000 </i>
   </dipole>
   <energy>
    <i name="e_fr_energy">    -93.17919237 </i>
    <i name="e_wo_entrp">    -93.13986613 </i>
    <i name="e_0_energy">    -93.15952925 </i>
   </energy>
  </scstep>
  <scstep>
   <time name="diag">    2.38    2.38</time>
   <time name="diis">   12.19   12.24</time>
   <time name="orth">    0.30    0.30</time>
   <time name="total">   15.82   15.88</time>
   <dipole>
    <v name="dipole">      0.00000000       0.00000000       0.61131620 </v>
    <i name="Tr[quadrupol]">  -5193.38255017 </i>
    <i name="Echarged">      0.00000000 </i>
    <i name="Edipol_quadrupol">      0.00000000 </i>
    <i name="Eion">      0.00000000 </i>
   </dipole>
   <energy>
    <i name="e_fr_energy">    -93.16784303 </i>
    <i name="e_wo_entrp">    -93.12907303 </i>
    <i name="e_0_energy">    -93.14845803 </i>
   </energy>
  </scstep>
  <scstep>
   <time name="diag">    2.37    2.37</time>
   <time name="diis">   10.13   10.15</time>
   <time name="orth">    0.30    0.30</time>
   <time name="total">   13.75   13.78</time>
   <dipole>
    <v name="dipole">      0.00000000       0.00000000       0.60926142 </v>
    <i name="Tr[quadrupol]">  -5193.48828917 </i>
    <i name="Echarged">      0.00000000 </i>
    <i name="Edipol_quadrupol">      0.00000000 </i>
    <i name="Eion">      0.00000000 </i>
   </dipole>
   <energy>
    <i name="e_fr_energy">    -93.15930830 </i>
    <i name="e_wo_entrp">    -93.12036103 </i>
    <i name="e_0_energy">    -93.13983467 </i>
   </energy>
  </scstep>
  <scstep>
   <time name="diag">    2.38    2.38</time>
   <time name="diis">    8.60    8.60</time>
   <time name="orth">    0.30    0.30</time>
   <time name="total">   12.23   12.24</time>
   <dipole>
    <v name="dipole">      0.00000000       0.00000000       0.59961454 </v>
    <i name="Tr[quadrupol]">  -5193.57826222 </i>
    <i name="Echarged">      0.00000000 </i>
    <i name="Edipol_quadrupol">      0.00000000 </i>
    <i name="Eion">      0.00000000 </i>
   </dipole>
   <energy>
    <i name="e_fr_energy">    -93.15705694 </i>
    <i name="e_wo_entrp">    -93.11810987 </i>
    <i name="e_0_energy">    -93.13758340 </i>
   </energy>
  </scstep>
  <scstep>
   <time name="diag">    2.57    2.57</time>
   <time name="diis">   10.09   10.09</time>
   <time name="orth">    0.30    0.30</time>
   <time name="total">   13.91   13.92</time>
   <dipole>
    <v name="dipole">      0.00000000       0.00000000       0.58277521 </v>
    <i name="Tr[quadrupol]">  -5193.74877473 </i>
    <i name="Echarged">      0.00000000 </i>
    <i name="Edipol_quadrupol">      0.00000000 </i>
    <i name="Eion">      0.00000000 </i>
   </dipole>
   <energy>
    <i name="e_fr_energy">    -93.15516243 </i>
    <i name="e_wo_entrp">    -93.11610759 </i>
    <i name="e_0_energy">    -93.13563501 </i>
   </energy>
  </scstep>
  <scstep>
   <time name="diag">    2.38    2.38</time>
   <time name="diis">    7.42    7.42</time>
   <time name="orth">    0.30    0.30</time>
   <time name="total">   11.06   11.06</time>
   <dipole>
    <v name="dipole">      0.00000000       0.00000000       0.57078322 </v>
    <i name="Tr[quadrupol]">  -5193.83469977 </i>
    <i name="Echarged">      0.00000000 </i>
    <i name="Edipol_quadrupol">      0.00000000 </i>
    <i name="Eion">      0.00000000 </i>
   </dipole>
   <energy>
    <i name="e_fr_energy">    -93.15501926 </i>
    <i name="e_wo_entrp">    -93.11598050 </i>
    <i name="e_0_energy">    -93.13549988 </i>
   </energy>
  </scstep>
  <scstep>
   <time name="diag">    2.37    2.37</time>
   <time name="diis">    7.46    7.47</time>
   <time name="orth">    0.30    0.30</time>
   <time name="total">   10.26   10.27</time>
   <dipole>
    <v name="dipole">      0.00000000       0.00000000       0.56344391 </v>
    <i name="Tr[quadrupol]">  -5193.89279266 </i>
    <i name="Echarged">      0.00000000 </i>
    <i name="Edipol_quadrupol">      0.00000000 </i>
    <i name="Eion">      0.00000000 </i>
   </dipole>
   <energy>
    <i name="alphaZ">    727.79877316 </i>
    <i name="ewald"> 106634.31398225 </i>
    <i name="hartreedc">-144789.11656513 </i>
    <i name="XCdc">   -378.97021974 </i>
    <i name="pawpsdc">  40002.66502201 </i>
    <i name="pawaedc"> -38423.24862890 </i>
    <i name="eentropy">     -0.03903892 </i>
    <i name="bandstr">  -1617.57882728 </i>
    <i name="atom">  37751.02038712 </i>
    <i name="e_fr_energy">    -93.15511543 </i>
    <i name="e_wo_entrp">    -93.11607651 </i>
    <i name="e_0_energy">    -93.13559597 </i>
   </energy>
  </scstep>
  <structure>
   <crystal>
    <varray name="basis" >
     <v>       8.64225908       0.00000000       0.00000000 </v>
     <v>       0.00000000       8.64225908       0.00000000 </v>
     <v>       0.00000000       0.00000000      22.11100000 </v>
    </varray>
    <i name="volume">   1651.44056326 </i>
    <varray name="rec_basis" >
     <v>       0.11571049       0.00000000       0.00000000 </v>
     <v>       0.00000000       0.11571049       0.00000000 </v>
     <v>       0.00000000       0.00000000       0.04522636 </v>
    </varray>
   </crystal>
   <varray name="positions" >
    <v>       0.17009441       0.17009441       0.39296304 </v>
    <v>       0.00131229       0.00131229       0.28171139 </v>
    <v>       0.33198458       0.00139351       0.28189546 </v>
    <v>       0.66666153      -0.00009463       0.27843666 </v>
    <v>       0.00139351       0.33198458       0.28189546 </v>
    <v>       0.33190284       0.33190284       0.28206808 </v>
    <v>       0.66667757       0.33342700       0.27842915 </v>
    <v>      -0.00009463       0.66666153       0.27843666 </v>
    <v>       0.33342700       0.66667757       0.27842915 </v>
    <v>       0.66666746       0.66666746       0.27862359 </v>
    <v>       0.16669805       0.16669805       0.18573210 </v>
    <v>       0.49871771       0.16668586       0.18617179 </v>
    <v>       0.83458604       0.16669562       0.18616221 </v>
    <v>       0.16668586       0.49871771       0.18617179 </v>
    <v>       0.49897745       0.49897745       0.18616486 </v>
    <v>       0.83432989       0.49903377       0.18613397 </v>
    <v>       0.16669562       0.83458604       0.18616221 </v>
    <v>       0.49903377       0.83432989       0.18613397 </v>
    <v>       0.83426301       0.83426301       0.18610916 </v>
    <v>       0.00000000       0.00000000       0.09212609 </v>
    <v>       0.33333333       0.00000000       0.09212609 </v>
    <v>       0.66666667       0.00000000       0.09212609 </v>
    <v>       0.00000000       0.33333333       0.09212609 </v>
    <v>       0.33333333       0.33333333       0.09212609 </v>
    <v>       0.66666667       0.33333333       0.09212609 </v>
    <v>       0.00000000       0.66666667       0.09212609 </v>
    <v>       0.33333333       0.66666667       0.09212609 </v>
    <v>       0.66666667       0.66666667       0.09212609 </v>
    <v>       0.16666667       0.16666667       0.00000000 </v>
    <v>       0.50000000       0.16666667       0.00000000 </v>
    <v>       0.83333333       0.16666667       0.00000000 </v>
    <v>       0.16666667       0.50000000       0.00000000 </v>
    <v>       0.50000000       0.50000000       0.00000000 </v>
    <v>       0.83333333       0.50000000       0.00000000 </v>
    <v>       0.16666667       0.83333333       0.00000000 </v>
    <v>       0.50000000       0.83333333       0.00000000 </v>
    <v>       0.83333333       0.83333333       0.00000000 </v>
   </varray>
  </structure>
  <varray name="forces" >
   <v>       0.00778095       0.00778095      -1.17209262 </v>
   <v>      -0.01759855      -0.01759855       0.12202027 </v>
   <v>       0.01458910      -0.01714197       0.13312574 </v>
   <v>       0.00016922       0.00282224      -0.00710518 </v>
   <v>      -0.01714197       0.01458910       0.13312574 </v>
[...]
       <r>     6.5273     0.7543   241.9912 </r>
       <r>     6.6045     0.1081   241.9996 </r>
       <r>     6.6818     0.0057   242.0000 </r>
       <r>     6.7591     0.0001   242.0000 </r>
       <r>     6.8364     0.0000   242.0000 </r>
       <r>     6.9137     0.0000   242.0000 </r>
       <r>     6.9910     0.0000   242.0000 </r>
       <r>     7.0683     0.0000   242.0000 </r>
       <r>     7.1456     0.0000   242.0000 </r>
       <r>     7.2229     0.0000   242.0000 </r>
       <r>     7.3002     0.0000   242.0000 </r>
       <r>     7.3774     0.0000   242.0000 </r>
       <r>     7.4547     0.0000   242.0000 </r>
      </set>
      <set comment="spin 2">
       <r>   -15.7323     0.0000     0.0000 </r>
       <r>   -15.6550     0.0000     0.0000 </r>
       <r>   -15.5777     0.0000     0.0000 </r>
       <r>   -15.5004     0.0000     0.0000 </r>
       <r>   -15.4231     0.0000     0.0000 </r>
       <r>   -15.3458     0.0000     0.0000 </r>
       <r>   -15.2685     0.0000     0.0000 </r>
       <r>   -15.1912     0.0000     0.0000 </r>
       <r>   -15.1140     0.0000     0.0000 </r>
       <r>   -15.0367     0.0000     0.0000 </r>
       <r>   -14.9594     0.0005     0.0000 </r>
       <r>   -14.8821     0.0251     0.0020 </r>
       <r>   -14.8048     0.4506     0.0368 </r>
       <r>   -14.7275     2.6705     0.2432 </r>
       <r>   -14.6502     5.3191     0.6543 </r>
       <r>   -14.5729     3.5913     0.9319 </r>
       <r>   -14.4956     0.8178     0.9951 </r>
       <r>   -14.4183     0.0618     0.9999 </r>
       <r>   -14.3411     0.0015     1.0000 </r>
       <r>   -14.2638     0.0000     1.0000 </r>
       <r>   -14.1865     0.0000     1.0000 </r>
       <r>   -14.1092     0.0000     1.0000 </r>
       <r>   -14.0319     0.0000     1.0000 </r>
       <r>   -13.9546     0.0000     1.0000 </r>
       <r>   -13.8773     0.0000     1.0000 </r>
       <r>   -13.8000     0.0000     1.0000 </r>
       <r>   -13.7227     0.0000     1.0000 </r>
       <r>   -13.6454     0.0000     1.0000 </r>
       <r>   -13.5682     0.0000     1.0000 </r>
       <r>   -13.4909     0.0000     1.0000 </r>
       <r>   -13.4136     0.0000     1.0000 </r>
       <r>   -13.3363     0.0000     1.0000 </r>
       <r>   -13.2590     0.0000     1.0000 </r>
       <r>   -13.1817     0.0000     1.0000 </r>
       <r>   -13.1044     0.0000     1.0000 </r>
       <r>   -13.0271     0.0000     1.0000 </r>
       <r>   -12.9498     0.0000     1.0000 </r>
       <r>   -12.8725     0.0000     1.0000 </r>
       <r>   -12.7953     0.0000     1.0000 </r>
       <r>   -12.7180     0.0000     1.0000 </r>
       <r>   -12.6407     0.0000     1.0000 </r>
       <r>   -12.5634     0.0000     1.0000 </r>
       <r>   -12.4861     0.0000     1.0000 </r>
       <r>   -12.4088     0.0000     1.0000 </r>
       <r>   -12.3315     0.0000     1.0000 </r>
       <r>   -12.2542     0.0000     1.0000 </r>
       <r>   -12.1769     0.0000     1.0000 </r>
       <r>   -12.0996     0.0000     1.0000 </r>
       <r>   -12.0224     0.0000     1.0000 </r>
       <r>   -11.9451     0.0000     1.0000 </r>
       <r>   -11.8678     0.0000     1.0000 </r>
       <r>   -11.7905     0.0000     1.0000 </r>
       <r>   -11.7132     0.0000     1.0000 </r>
       <r>   -11.6359     0.0000     1.0000 </r>
       <r>   -11.5586     0.0000     1.0000 </r>
       <r>   -11.4813     0.0000     1.0000 </r>
       <r>   -11.4040     0.0000     1.0000 </r>
       <r>   -11.3267     0.0000     1.0000 </r>
       <r>   -11.2495     0.0000     1.0000 </r>
       <r>   -11.1722     0.0000     1.0000 </r>
       <r>   -11.0949     0.0000     1.0000 </r>
       <r>   -11.0176     0.0000     1.0000 </r>
       <r>   -10.9403     0.0000     1.0000 </r>
       <r>   -10.8630     0.0000     1.0000 </r>
       <r>   -10.7857     0.0000     1.0000 </r>
       <r>   -10.7084     0.0000     1.0000 </r>
       <r>   -10.6311     0.0000     1.0000 </r>
       <r>   -10.5538     0.0000     1.0000 </r>
       <r>   -10.4766     0.0000     1.0000 </r>
       <r>   -10.3993     0.0000     1.0000 </r>
       <r>   -10.3220     0.0000     1.0000 </r>
       <r>   -10.2447     0.0000     1.0000 </r>
       <r>   -10.1674     0.0000     1.0000 </r>
       <r>   -10.0901     0.0000     1.0000 </r>
       <r>   -10.0128     0.0000     1.0000 </r>
       <r>    -9.9355     0.0000     1.0000 </r>
       <r>    -9.8582     0.0000     1.0000 </r>
       <r>    -9.7809     0.0000     1.0000 </r>
       <r>    -9.7037     0.0000     1.0000 </r>
       <r>    -9.6264     0.0000     1.0000 </r>
       <r>    -9.5491     0.0000     1.0000 </r>
       <r>    -9.4718     0.0000     1.0000 </r>
       <r>    -9.3945     0.0000     1.0000 </r>
       <r>    -9.3172     0.0000     1.0000 </r>
       <r>    -9.2399     0.0000     1.0000 </r>
       <r>    -9.1626     0.0000     1.0000 </r>
       <r>    -9.0853     0.0000     1.0000 </r>
       <r>    -9.0080     0.0000     1.0000 </r>
       <r>    -8.9308     0.0000     1.0000 </r>
       <r>    -8.8535     0.0000     1.0000 </r>
       <r>    -8.7762     0.0000     1.0000 </r>
       <r>    -8.6989     0.0000     1.0000 </r>
       <r>    -8.6216     0.0000     1.0000 </r>
       <r>    -8.5443     0.0000     1.0000 </r>
       <r>    -8.4670     0.0000     1.0000 </r>
       <r>    -8.3897     0.0000     1.0000 </r>
       <r>    -8.3124     0.0000     1.0000 </r>
       <r>    -8.2351     0.0000     1.0000 </r>
       <r>    -8.1579     0.0000     1.0000 </r>
       <r>    -8.0806     0.0000     1.0000 </r>
       <r>    -8.0033     0.0000     1.0000 </r>
       <r>    -7.9260     0.0000     1.0000 </r>
       <r>    -7.8487     0.0000     1.0000 </r>
       <r>    -7.7714     0.0000     1.0000 </r>
       <r>    -7.6941     0.0000     1.0000 </r>
       <r>    -7.6168     0.0000     1.0000 </r>
       <r>    -7.5395     0.0000     1.0000 </r>
       <r>    -7.4622     0.0000     1.0000 </r>
       <r>    -7.3850     0.0000     1.0000 </r>
       <r>    -7.3077     0.0000     1.0000 </r>
       <r>    -7.2304     0.0000     1.0000 </r>
       <r>    -7.1531     0.0000     1.0000 </r>
       <r>    -7.0758     0.0000     1.0000 </r>
       <r>    -6.9985     0.0004     1.0000 </r>
       <r>    -6.9212     0.0127     1.0010 </r>
       <r>    -6.8439     0.1380     1.0117 </r>
       <r>    -6.7666     0.5537     1.0545 </r>
       <r>    -6.6893     1.1033     1.1398 </r>
       <r>    -6.6121     1.5023     1.2559 </r>
       <r>    -6.5348     1.4204     1.3656 </r>
       <r>    -6.4575     1.4106     1.4747 </r>
       <r>    -6.3802     1.7200     1.6076 </r>
       <r>    -6.3029     1.7786     1.7451 </r>
       <r>    -6.2256     1.4948     1.8606 </r>
       <r>    -6.1483     1.4368     1.9717 </r>
       <r>    -6.0710     2.1485     2.1377 </r>
       <r>    -5.9937     2.2950     2.3151 </r>
       <r>    -5.9164     1.7612     2.4512 </r>
       <r>    -5.8392     2.5241     2.6463 </r>
       <r>    -5.7619     5.6665     3.0843 </r>
       <r>    -5.6846    12.0316     4.0142 </r>
       <r>    -5.6073    23.5234     5.8323 </r>
       <r>    -5.5300    35.1897     8.5521 </r>
       <r>    -5.4527    40.5912    11.6894 </r>
       <r>    -5.3754    42.9463    15.0087 </r>
       <r>    -5.2981    44.5721    18.4537 </r>
       <r>    -5.2208    45.1469    21.9431 </r>
       <r>    -5.1435    46.4185    25.5308 </r>
       <r>    -5.0663    45.1385    29.0196 </r>
       <r>    -4.9890    46.1723    32.5882 </r>
       <r>    -4.9117    51.1719    36.5433 </r>
       <r>    -4.8344    51.0111    40.4860 </r>
       <r>    -4.7571    51.5275    44.4685 </r>
       <r>    -4.6798    54.4044    48.6734 </r>
       <r>    -4.6025    48.8832    52.4516 </r>
       <r>    -4.5252    42.1143    55.7066 </r>
       <r>    -4.4479    41.9180    58.9465 </r>
       <r>    -4.3706    46.4002    62.5328 </r>
       <r>    -4.2934    48.4868    66.2803 </r>
       <r>    -4.2161    50.5982    70.1910 </r>
       <r>    -4.1388    56.5579    74.5624 </r>
       <r>    -4.0615    65.3627    79.6143 </r>
       <r>    -3.9842    67.2319    84.8106 </r>
       <r>    -3.9069    64.5241    89.7977 </r>
       <r>    -3.8296    62.4585    94.6251 </r>
       <r>    -3.7523    59.4120    99.2171 </r>
       <r>    -3.6750    54.0083   103.3914 </r>
       <r>    -3.5977    53.2494   107.5070 </r>
       <r>    -3.5205    59.5988   112.1134 </r>
       <r>    -3.4432    63.6591   117.0336 </r>
       <r>    -3.3659    63.6284   121.9515 </r>
       <r>    -3.2886    60.0466   126.5925 </r>
       <r>    -3.2113    56.0264   130.9228 </r>
       <r>    -3.1340    60.6488   135.6103 </r>
       <r>    -3.0567    65.3614   140.6621 </r>
       <r>    -2.9794    62.6042   145.5008 </r>
       <r>    -2.9021    61.2942   150.2382 </r>
       <r>    -2.8248    67.8260   155.4805 </r>
       <r>    -2.7476    75.1614   161.2897 </r>
       <r>    -2.6703    75.0028   167.0867 </r>
       <r>    -2.5930    69.7423   172.4771 </r>
       <r>    -2.5157    66.3482   177.6051 </r>
       <r>    -2.4384    55.9691   181.9310 </r>
       <r>    -2.3611    36.3068   184.7371 </r>
       <r>    -2.2838    20.4175   186.3152 </r>
       <r>    -2.2065    14.5299   187.4382 </r>
       <r>    -2.1292    13.6229   188.4911 </r>
       <r>    -2.0519    11.1285   189.3513 </r>
       <r>    -1.9747     8.4154   190.0017 </r>
       <r>    -1.8974     7.4854   190.5802 </r>
       <r>    -1.8201     6.2064   191.0599 </r>
       <r>    -1.7428     3.9882   191.3682 </r>
       <r>    -1.6655     3.1499   191.6116 </r>
       <r>    -1.5882     4.0078   191.9214 </r>
       <r>    -1.5109     4.6073   192.2775 </r>
       <r>    -1.4336     4.7464   192.6443 </r>
       <r>    -1.3563     5.0162   193.0320 </r>
       <r>    -1.2790     5.2324   193.4364 </r>
       <r>    -1.2018     5.3661   193.8512 </r>
       <r>    -1.1245     5.1869   194.2521 </r>
       <r>    -1.0472     4.0986   194.5689 </r>
       <r>    -0.9699     2.9581   194.7975 </r>
       <r>    -0.8926     3.3017   195.0527 </r>
       <r>    -0.8153     4.5201   195.4021 </r>
       <r>    -0.7380     4.9525   195.7848 </r>
       <r>    -0.6607     4.8090   196.1565 </r>
       <r>    -0.5834     3.9267   196.4600 </r>
       <r>    -0.5061     3.8584   196.7582 </r>
       <r>    -0.4289     5.2248   197.1621 </r>
       <r>    -0.3516     5.5489   197.5909 </r>
       <r>    -0.2743     4.4407   197.9342 </r>
       <r>    -0.1970     3.2332   198.1840 </r>
       <r>    -0.1197     4.1692   198.5063 </r>
       <r>    -0.0424     5.8118   198.9555 </r>
       <r>     0.0349     5.2866   199.3641 </r>
       <r>     0.1122     4.4083   199.7048 </r>
       <r>     0.1895     4.6001   200.0603 </r>
       <r>     0.2668     4.2978   200.3925 </r>
       <r>     0.3440     4.4397   200.7357 </r>
       <r>     0.4213     5.0304   201.1245 </r>
       <r>     0.4986     4.7946   201.4950 </r>
       <r>     0.5759     4.2473   201.8233 </r>
       <r>     0.6532     4.5105   202.1719 </r>
       <r>     0.7305     5.0008   202.5584 </r>
       <r>     0.8078     6.5265   203.0629 </r>
       <r>     0.8851     7.1672   203.6168 </r>
       <r>     0.9624     6.5188   204.1207 </r>
       <r>     1.0397     5.7074   204.5618 </r>
       <r>     1.1170     5.1004   204.9560 </r>
       <r>     1.1942     5.6486   205.3926 </r>
       <r>     1.2715     6.1473   205.8677 </r>
       <r>     1.3488     6.2604   206.3516 </r>
       <r>     1.4261     5.8442   206.8033 </r>
       <r>     1.5034     5.0444   207.1932 </r>
       <r>     1.5807     5.3943   207.6101 </r>
       <r>     1.6580     5.1608   208.0090 </r>
       <r>     1.7353     3.9301   208.3127 </r>
       <r>     1.8126     4.6237   208.6701 </r>
       <r>     1.8899     5.8820   209.1247 </r>
       <r>     1.9671     5.9023   209.5809 </r>
       <r>     2.0444     6.1793   210.0585 </r>
       <r>     2.1217     6.1154   210.5312 </r>
       <r>     2.1990     5.9191   210.9886 </r>
       <r>     2.2763     6.5887   211.4979 </r>
       <r>     2.3536     6.4270   211.9946 </r>
       <r>     2.4309     5.1556   212.3931 </r>
       <r>     2.5082     4.1372   212.7129 </r>
       <r>     2.5855     4.0101   213.0228 </r>
       <r>     2.6628     5.2916   213.4318 </r>
       <r>     2.7400     7.6787   214.0253 </r>
       <r>     2.8173     7.2316   214.5842 </r>
       <r>     2.8946     5.4416   215.0048 </r>
       <r>     2.9719     4.8621   215.3806 </r>
       <r>     3.0492     4.8961   215.7590 </r>
       <r>     3.1265     6.5493   216.2652 </r>
       <r>     3.2038     7.1222   216.8157 </r>
       <r>     3.2811     4.9041   217.1947 </r>
       <r>     3.3584     4.1247   217.5135 </r>
       <r>     3.4357     5.9357   217.9723 </r>
       <r>     3.5129     7.9408   218.5860 </r>
       <r>     3.5902     7.2429   219.1458 </r>
       <r>     3.6675     5.7782   219.5924 </r>
       <r>     3.7448     6.9942   220.1330 </r>
       <r>     3.8221     8.6375   220.8006 </r>
       <r>     3.8994     9.8854   221.5646 </r>
       <r>     3.9767     9.8047   222.3225 </r>
       <r>     4.0540     7.3651   222.8917 </r>
       <r>     4.1313     6.6140   223.4029 </r>
       <r>     4.2086     7.2680   223.9646 </r>
       <r>     4.2858     7.4301   224.5389 </r>
       <r>     4.3631     6.9564   225.0766 </r>
       <r>     4.4404     5.7341   225.5198 </r>
       <r>     4.5177     5.7243   225.9622 </r>
       <r>     4.5950     7.3021   226.5266 </r>
       <r>     4.6723     8.1362   227.1554 </r>
       <r>     4.7496     8.0193   227.7752 </r>
       <r>     4.8269     7.4250   228.3491 </r>
       <r>     4.9042     7.5314   228.9312 </r>
       <r>     4.9815     9.6427   229.6765 </r>
       <r>     5.0587    10.9247   230.5209 </r>
       <r>     5.1360     9.6390   231.2659 </r>
       <r>     5.2133     7.5776   231.8515 </r>
       <r>     5.2906     6.5737   232.3596 </r>
       <r>     5.3679     7.5784   232.9454 </r>
       <r>     5.4452     8.1495   233.5752 </r>
       <r>     5.5225     7.0330   234.1188 </r>
       <r>     5.5998     6.1014   234.5904 </r>
       <r>     5.6771     8.0351   235.2114 </r>
       <r>     5.7544    10.1022   235.9922 </r>
       <r>     5.8316    11.4585   236.8779 </r>
       <r>     5.9089    11.1309   237.7382 </r>
       <r>     5.9862    10.1975   238.5263 </r>
       <r>     6.0635     9.8845   239.2903 </r>
       <r>     6.1408    10.0853   240.0698 </r>
       <r>     6.2181     9.1794   240.7793 </r>
       <r>     6.2954     7.5436   241.3623 </r>
       <r>     6.3727     4.9830   241.7474 </r>
       <r>     6.4500     2.4081   241.9336 </r>
       <r>     6.5273     0.7477   241.9914 </r>
       <r>     6.6045     0.1062   241.9996 </r>
       <r>     6.6818     0.0055   242.0000 </r>
       <r>     6.7591     0.0001   242.0000 </r>
       <r>     6.8364     0.0000   242.0000 </r>
       <r>     6.9137     0.0000   242.0000 </r>
       <r>     6.9910     0.0000   242.0000 </r>
       <r>     7.0683     0.0000   242.0000 </r>
       <r>     7.1456     0.0000   242.0000 </r>
       <r>     7.2229     0.0000   242.0000 </r>
       <r>     7.3002     0.0000   242.0000 </r>
       <r>     7.3774     0.0000   242.0000 </r>
       <r>     7.4547     0.0000   242.0000 </r>
      </set>
     </set>
    </array>
   </total>
  </dos>
 </calculation>
 <structure name="finalpos" >
  <crystal>
   <varray name="basis" >
    <v>       8.64225908       0.00000000       0.00000000 </v>
    <v>       0.00000000       8.64225908       0.00000000 </v>
    <v>       0.00000000       0.00000000      22.11100000 </v>
   </varray>
   <i name="volume">   1651.44056326 </i>
   <varray name="rec_basis" >
    <v>       0.11571049       0.00000000       0.00000000 </v>
    <v>       0.00000000       0.11571049       0.00000000 </v>
    <v>       0.00000000       0.00000000       0.04522636 </v>
   </varray>
  </crystal>
  <varray name="positions" >
   <v>       0.16874800       0.16874800       0.36219238 </v>
   <v>      -0.00390050      -0.00390050       0.27983338 </v>
   <v>       0.33744780      -0.00400220       0.27987393 </v>
   <v>       0.66683701      -0.00008578       0.27784891 </v>
   <v>      -0.00400220       0.33744780       0.27987393 </v>
   <v>       0.33781464       0.33781464       0.27990942 </v>
   <v>       0.66696456       0.33335987       0.27783966 </v>
   <v>      -0.00008578       0.66683701       0.27784891 </v>
   <v>       0.33335987       0.66696456       0.27783966 </v>
   <v>       0.66664355       0.66664355       0.27868073 </v>
   <v>       0.16671312       0.16671312       0.18535683 </v>
   <v>       0.49843665       0.16668517       0.18567607 </v>
   <v>       0.83503491       0.16664327       0.18567619 </v>
   <v>       0.16668517       0.49843665       0.18567607 </v>
   <v>       0.49913494       0.49913494       0.18573575 </v>
   <v>       0.83433284       0.49912388       0.18572932 </v>
   <v>       0.16664327       0.83503491       0.18567619 </v>
   <v>       0.49912388       0.83433284       0.18572932 </v>
   <v>       0.83422317       0.83422317       0.18570841 </v>
   <v>       0.00000000       0.00000000       0.09212609 </v>
   <v>       0.33333333       0.00000000       0.09212609 </v>
   <v>       0.66666667       0.00000000       0.09212609 </v>
   <v>       0.00000000       0.33333333       0.09212609 </v>
   <v>       0.33333333       0.33333333       0.09212609 </v>
   <v>       0.66666667       0.33333333       0.09212609 </v>
   <v>       0.00000000       0.66666667       0.09212609 </v>
   <v>       0.33333333       0.66666667       0.09212609 </v>
   <v>       0.66666667       0.66666667       0.09212609 </v>
   <v>       0.16666667       0.16666667       0.00000000 </v>
   <v>       0.50000000       0.16666667       0.00000000 </v>
   <v>       0.83333333       0.16666667       0.00000000 </v>
   <v>       0.16666667       0.50000000       0.00000000 </v>
   <v>       0.50000000       0.50000000       0.00000000 </v>
   <v>       0.83333333       0.50000000       0.00000000 </v>
   <v>       0.16666667       0.83333333       0.00000000 </v>
   <v>       0.50000000       0.83333333       0.00000000 </v>
   <v>       0.83333333       0.83333333       0.00000000 </v>
  </varray>
  <varray name="selective"  type="logical" >
   <v type="logical" >  T  T  T </v>
   <v type="logical" >  T  T  T </v>
   <v type="logical" >  T  T  T </v>
   <v type="logical" >  T  T  T </v>
   <v type="logical" >  T  T  T </v>
   <v type="logical" >  T  T  T </v>
   <v type="logical" >  T  T  T </v>
   <v type="logical" >  T  T  T </v>
   <v type="logical" >  T  T  T </v>
   <v type="logical" >  T  T  T </v>
   <v type="logical" >  T  T  T </v>
   <v type="logical" >  T  T  T </v>
   <v type="logical" >  T  T  T </v>
   <v type="logical" >  T  T  T </v>
   <v type="logical" >  T  T  T </v>
   <v type="logical" >  T  T  T </v>
   <v type="logical" >  T  T  T </v>
   <v type="logical" >  T  T  T </v>
   <v type="logical" >  T  T  T </v>
   <v type="logical" >  F  F  F </v>
   <v type="logical" >  F  F  F </v>
   <v type="logical" >  F  F  F </v>
   <v type="logical" >  F  F  F </v>
   <v type="logical" >  F  F  F </v>
   <v type="logical" >  F  F  F </v>
   <v type="logical" >  F  F  F </v>
   <v type="logical" >  F  F  F </v>
   <v type="logical" >  F  F  F </v>
   <v type="logical" >  F  F  F </v>
   <v type="logical" >  F  F  F </v>
   <v type="logical" >  F  F  F </v>
   <v type="logical" >  F  F  F </v>
   <v type="logical" >  F  F  F </v>
   <v type="logical" >  F  F  F </v>
   <v type="logical" >  F  F  F </v>
   <v type="logical" >  F  F  F </v>
   <v type="logical" >  F  F  F </v>
  </varray>
  <nose>
   <v>      -3.00000000       0.00000000       0.00010000       0.00010000 </v>
  </nose>
 </structure>
</modeling>
