CatImpurities                           
           1
     8.642259    0.000000    0.000000
     0.000000    8.642259    0.000000
     0.000000    0.000000   22.111000
   Cl   Ag
   1  36
Direct configuration=     1
   0.17000077  0.17000077  0.40965987
   0.00002419  0.00002419  0.27875029
   0.33330899  0.00002558  0.27875273
   0.66666653 -0.00000286  0.27870340
   0.00002558  0.33330899  0.27875273
   0.33330717  0.33330717  0.27875504
   0.66666695  0.33333610  0.27870341
  -0.00000286  0.66666653  0.27870340
   0.33333610  0.66666695  0.27870341
   0.66666674  0.66666674  0.27870591
   0.16666680  0.16666680  0.18557924
   0.49998893  0.16666658  0.18558783
   0.83334425  0.16666697  0.18558788
   0.16666658  0.49998893  0.18558783
   0.49998955  0.49998955  0.18558968
   0.83334382  0.49998998  0.18558948
   0.16666697  0.83334425  0.18558788
   0.49998998  0.83334382  0.18558948
   0.83334301  0.83334301  0.18558924
   0.00000000  0.00000000  0.09212609
   0.33333333  0.00000000  0.09212609
   0.66666667  0.00000000  0.09212609
   0.00000000  0.33333333  0.09212609
   0.33333333  0.33333333  0.09212609
   0.66666667  0.33333333  0.09212609
   0.00000000  0.66666667  0.09212609
   0.33333333  0.66666667  0.09212609
   0.66666667  0.66666667  0.09212609
   0.16666667  0.16666667  0.00000000
   0.50000000  0.16666667  0.00000000
   0.83333333  0.16666667  0.00000000
   0.16666667  0.50000000  0.00000000
   0.50000000  0.50000000  0.00000000
   0.83333333  0.50000000  0.00000000
   0.16666667  0.83333333  0.00000000
   0.50000000  0.83333333  0.00000000
   0.83333333  0.83333333  0.00000000
Direct configuration=     2
   0.17003251  0.17003251  0.40148127
   0.00097343  0.00097343  0.28044756
   0.33235351  0.00102940  0.28054625
   0.66666097 -0.00010954  0.27855377
   0.00102940  0.33235351  0.28054625
   0.33227847  0.33227847  0.28063856
   0.66667791  0.33343924  0.27855428
  -0.00010954  0.66666097  0.27855377
   0.33343924  0.66667791  0.27855428
   0.66666939  0.66666939  0.27865285
   0.16667275  0.16667275  0.18545287
   0.49954220  0.16666389  0.18579152
   0.83378431  0.16667916  0.18579317
   0.16666389  0.49954220  0.18579152
   0.49957291  0.49957291  0.18586139
   0.83376120  0.49959075  0.18585307
   0.16667916  0.83378431  0.18579317
   0.49959075  0.83376120  0.18585307
   0.83372824  0.83372824  0.18584336
   0.00000000  0.00000000  0.09212609
   0.33333333  0.00000000  0.09212609
   0.66666667  0.00000000  0.09212609
   0.00000000  0.33333333  0.09212609
   0.33333333  0.33333333  0.09212609
   0.66666667  0.33333333  0.09212609
   0.00000000  0.66666667  0.09212609
   0.33333333  0.66666667  0.09212609
   0.66666667  0.66666667  0.09212609
   0.16666667  0.16666667  0.00000000
   0.50000000  0.16666667  0.00000000
   0.83333333  0.16666667  0.00000000
   0.16666667  0.50000000  0.00000000
   0.50000000  0.50000000  0.00000000
   0.83333333  0.50000000  0.00000000
   0.16666667  0.83333333  0.00000000
   0.50000000  0.83333333  0.00000000
   0.83333333  0.83333333  0.00000000
Direct configuration=     3
   0.17009441  0.17009441  0.39296304
   0.00131229  0.00131229  0.28171139
   0.33198458  0.00139351  0.28189546
   0.66666153 -0.00009463  0.27843666
   0.00139351  0.33198458  0.28189546
   0.33190284  0.33190284  0.28206808
   0.66667757  0.33342700  0.27842915
  -0.00009463  0.66666153  0.27843666
   0.33342700  0.66667757  0.27842915
   0.66666746  0.66666746  0.27862359
   0.16669805  0.16669805  0.18573210
   0.49871771  0.16668586  0.18617179
   0.83458604  0.16669562  0.18616221
   0.16668586  0.49871771  0.18617179
   0.49897745  0.49897745  0.18616486
   0.83432989  0.49903377  0.18613397
   0.16669562  0.83458604  0.18616221
   0.49903377  0.83432989  0.18613397
   0.83426301  0.83426301  0.18610916
   0.00000000  0.00000000  0.09212609
   0.33333333  0.00000000  0.09212609
   0.66666667  0.00000000  0.09212609
   0.00000000  0.33333333  0.09212609
   0.33333333  0.33333333  0.09212609
   0.66666667  0.33333333  0.09212609
   0.00000000  0.66666667  0.09212609
   0.33333333  0.66666667  0.09212609
   0.66666667  0.66666667  0.09212609
   0.16666667  0.16666667  0.00000000
   0.50000000  0.16666667  0.00000000
   0.83333333  0.16666667  0.00000000
   0.16666667  0.50000000  0.00000000
   0.50000000  0.50000000  0.00000000
   0.83333333  0.50000000  0.00000000
   0.16666667  0.83333333  0.00000000
   0.50000000  0.83333333  0.00000000
   0.83333333  0.83333333  0.00000000
Direct configuration=     4
   0.17024275  0.17024275  0.38422921
   0.00097679  0.00097679  0.28262063
   0.33226271  0.00106670  0.28288745
   0.66666476 -0.00004083  0.27838371
   0.00106670  0.33226271  0.28288745
   0.33217340  0.33217340  0.28316282
   0.66668225  0.33336995  0.27837289
  -0.00004083  0.66666476  0.27838371
   0.33336995  0.66668225  0.27837289
   0.66666645  0.66666645  0.27858423
   0.16671789  0.16671789  0.18609468
   0.49794708  0.16670869  0.18652611
   0.83532027  0.16671963  0.18649855
   0.16670869  0.49794708  0.18652611
   0.49849556  0.49849556  0.18640213
   0.83478332  0.49856932  0.18635591
   0.16671963  0.83532027  0.18649855
   0.49856932  0.83478332  0.18635591
   0.83469353  0.83469353  0.18631472
   0.00000000  0.00000000  0.09212609
   0.33333333  0.00000000  0.09212609
   0.66666667  0.00000000  0.09212609
   0.00000000  0.33333333  0.09212609
   0.33333333  0.33333333  0.09212609
   0.66666667  0.33333333  0.09212609
   0.00000000  0.66666667  0.09212609
   0.33333333  0.66666667  0.09212609
   0.66666667  0.66666667  0.09212609
   0.16666667  0.16666667  0.00000000
   0.50000000  0.16666667  0.00000000
   0.83333333  0.16666667  0.00000000
   0.16666667  0.50000000  0.00000000
   0.50000000  0.50000000  0.00000000
   0.83333333  0.50000000  0.00000000
   0.16666667  0.83333333  0.00000000
   0.50000000  0.83333333  0.00000000
   0.83333333  0.83333333  0.00000000
Direct configuration=     5
   0.17047034  0.17047034  0.37537311
  -0.00018327 -0.00018327  0.28302879
   0.33332564 -0.00011232  0.28336861
   0.66666359  0.00001900  0.27840195
  -0.00011232  0.33332564  0.28336861
   0.33328269  0.33328269  0.28373716
   0.66668143  0.33331304  0.27839416
   0.00001900  0.66666359  0.27840195
   0.33331304  0.66668143  0.27839416
   0.66666302  0.66666302  0.27856945
   0.16673946  0.16673946  0.18643482
   0.49731516  0.16673735  0.18678907
   0.83592148  0.16672235  0.18674491
   0.16673735  0.49731516  0.18678907
   0.49809422  0.49809422  0.18658079
   0.83513663  0.49823764  0.18650300
   0.16672235  0.83592148  0.18674491
   0.49823764  0.83513663  0.18650300
   0.83500173  0.83500173  0.18644380
   0.00000000  0.00000000  0.09212609
   0.33333333  0.00000000  0.09212609
   0.66666667  0.00000000  0.09212609
   0.00000000  0.33333333  0.09212609
   0.33333333  0.33333333  0.09212609
   0.66666667  0.33333333  0.09212609
   0.00000000  0.66666667  0.09212609
   0.33333333  0.66666667  0.09212609
   0.66666667  0.66666667  0.09212609
   0.16666667  0.16666667  0.00000000
   0.50000000  0.16666667  0.00000000
   0.83333333  0.16666667  0.00000000
   0.16666667  0.50000000  0.00000000
   0.50000000  0.50000000  0.00000000
   0.83333333  0.50000000  0.00000000
   0.16666667  0.83333333  0.00000000
   0.50000000  0.83333333  0.00000000
   0.83333333  0.83333333  0.00000000
Direct configuration=     6
   0.17055214  0.17055214  0.36919446
  -0.00206499 -0.00206499  0.28260729
   0.33522729 -0.00220222  0.28292889
   0.66664886  0.00003792  0.27846006
  -0.00220222  0.33522729  0.28292889
   0.33540413  0.33540413  0.28326155
   0.66669033  0.33329746  0.27845384
   0.00003792  0.66664886  0.27846006
   0.33329746  0.66669033  0.27845384
   0.66665723  0.66665723  0.27860285
   0.16673993  0.16673993  0.18655506
   0.49711959  0.16672694  0.18682950
   0.83607064  0.16672865  0.18676943
   0.16672694  0.49711959  0.18682950
   0.49797902  0.49797902  0.18662364
   0.83524607  0.49814189  0.18652612
   0.16672865  0.83607064  0.18676943
   0.49814189  0.83524607  0.18652612
   0.83504597  0.83504597  0.18643605
   0.00000000  0.00000000  0.09212609
   0.33333333  0.00000000  0.09212609
   0.66666667  0.00000000  0.09212609
   0.00000000  0.33333333  0.09212609
   0.33333333  0.33333333  0.09212609
   0.66666667  0.33333333  0.09212609
   0.00000000  0.66666667  0.09212609
   0.33333333  0.66666667  0.09212609
   0.66666667  0.66666667  0.09212609
   0.16666667  0.16666667  0.00000000
   0.50000000  0.16666667  0.00000000
   0.83333333  0.16666667  0.00000000
   0.16666667  0.50000000  0.00000000
   0.50000000  0.50000000  0.00000000
   0.83333333  0.50000000  0.00000000
   0.16666667  0.83333333  0.00000000
   0.50000000  0.83333333  0.00000000
   0.83333333  0.83333333  0.00000000
Direct configuration=     7
   0.17027643  0.17027643  0.36430229
  -0.00420672 -0.00420672  0.28140331
   0.33746915 -0.00464361  0.28163667
   0.66670725  0.00002086  0.27848805
  -0.00464361  0.33746915  0.28163667
   0.33813535  0.33813535  0.28180073
   0.66674619  0.33330549  0.27849029
   0.00002086  0.66670725  0.27848805
   0.33330549  0.66674619  0.27849029
   0.66666310  0.66666310  0.27871226
   0.16670744  0.16670744  0.18643982
   0.49751168  0.16668580  0.18649712
   0.83565610  0.16665694  0.18643034
   0.16668580  0.49751168  0.18649712
   0.49839583  0.49839583  0.18632142
   0.83482646  0.49855483  0.18622546
   0.16665694  0.83565610  0.18643034
   0.49855483  0.83482646  0.18622546
   0.83462951  0.83462951  0.18614286
   0.00000000  0.00000000  0.09212609
   0.33333333  0.00000000  0.09212609
   0.66666667  0.00000000  0.09212609
   0.00000000  0.33333333  0.09212609
   0.33333333  0.33333333  0.09212609
   0.66666667  0.33333333  0.09212609
   0.00000000  0.66666667  0.09212609
   0.33333333  0.66666667  0.09212609
   0.66666667  0.66666667  0.09212609
   0.16666667  0.16666667  0.00000000
   0.50000000  0.16666667  0.00000000
   0.83333333  0.16666667  0.00000000
   0.16666667  0.50000000  0.00000000
   0.50000000  0.50000000  0.00000000
   0.83333333  0.50000000  0.00000000
   0.16666667  0.83333333  0.00000000
   0.50000000  0.83333333  0.00000000
   0.83333333  0.83333333  0.00000000
Direct configuration=     8
   0.16980407  0.16980407  0.36168077
  -0.00400261 -0.00400261  0.28041012
   0.33739399 -0.00427831  0.28053928
   0.66675319 -0.00009884  0.27824898
  -0.00427831  0.33739399  0.28053928
   0.33788424  0.33788424  0.28062562
   0.66696298  0.33337774  0.27823726
  -0.00009884  0.66675319  0.27824898
   0.33337774  0.66696298  0.27823726
   0.66666011  0.66666011  0.27884187
   0.16673731  0.16673731  0.18603372
   0.49827073  0.16660998  0.18599179
   0.83493233  0.16666980  0.18595545
   0.16660998  0.49827073  0.18599179
   0.49920795  0.49920795  0.18581987
   0.83415271  0.49918018  0.18583310
   0.16666980  0.83493233  0.18595545
   0.49918018  0.83415271  0.18583310
   0.83403342  0.83403342  0.18580361
   0.00000000  0.00000000  0.09212609
   0.33333333  0.00000000  0.09212609
   0.66666667  0.00000000  0.09212609
   0.00000000  0.33333333  0.09212609
   0.33333333  0.33333333  0.09212609
   0.66666667  0.33333333  0.09212609
   0.00000000  0.66666667  0.09212609
   0.33333333  0.66666667  0.09212609
   0.66666667  0.66666667  0.09212609
   0.16666667  0.16666667  0.00000000
   0.50000000  0.16666667  0.00000000
   0.83333333  0.16666667  0.00000000
   0.16666667  0.50000000  0.00000000
   0.50000000  0.50000000  0.00000000
   0.83333333  0.50000000  0.00000000
   0.16666667  0.83333333  0.00000000
   0.50000000  0.83333333  0.00000000
   0.83333333  0.83333333  0.00000000
Direct configuration=     9
   0.16797480  0.16797480  0.35764210
  -0.00490569 -0.00490569  0.27793548
   0.33870604 -0.00483309  0.27778945
   0.66687050 -0.00044820  0.27742560
  -0.00483309  0.33870604  0.27778945
   0.33922907  0.33922907  0.27749182
   0.66693146  0.33371170  0.27734300
  -0.00044820  0.66687050  0.27742560
   0.33371170  0.66693146  0.27734300
   0.66656560  0.66656560  0.27912651
   0.16667365  0.16667365  0.18414738
   0.49915733  0.16683969  0.18520834
   0.83447083  0.16659547  0.18516659
   0.16683969  0.49915733  0.18520834
   0.49904509  0.49904509  0.18571200
   0.83445820  0.49916887  0.18567768
   0.16659547  0.83447083  0.18516659
   0.49916887  0.83445820  0.18567768
   0.83428218  0.83428218  0.18566047
   0.00000000  0.00000000  0.09212609
   0.33333333  0.00000000  0.09212609
   0.66666667  0.00000000  0.09212609
   0.00000000  0.33333333  0.09212609
   0.33333333  0.33333333  0.09212609
   0.66666667  0.33333333  0.09212609
   0.00000000  0.66666667  0.09212609
   0.33333333  0.66666667  0.09212609
   0.66666667  0.66666667  0.09212609
   0.16666667  0.16666667  0.00000000
   0.50000000  0.16666667  0.00000000
   0.83333333  0.16666667  0.00000000
   0.16666667  0.50000000  0.00000000
   0.50000000  0.50000000  0.00000000
   0.83333333  0.50000000  0.00000000
   0.16666667  0.83333333  0.00000000
   0.50000000  0.83333333  0.00000000
   0.83333333  0.83333333  0.00000000
Direct configuration=    10
   0.16888962  0.16888962  0.36107165
  -0.00432628 -0.00432628  0.27957036
   0.33786421 -0.00445131  0.27960819
   0.66682535 -0.00010974  0.27791094
  -0.00445131  0.33786421  0.27960819
   0.33829451  0.33829451  0.27958772
   0.66695367  0.33337554  0.27787762
  -0.00010974  0.66682535  0.27791094
   0.33337554  0.66695367  0.27787762
   0.66662831  0.66662831  0.27885688
   0.16670352  0.16670352  0.18518104
   0.49856211  0.16669576  0.18563335
   0.83490539  0.16664660  0.18563395
   0.16669576  0.49856211  0.18563335
   0.49927563  0.49927563  0.18570590
   0.83422784  0.49925551  0.18571152
   0.16664660  0.83490539  0.18563395
   0.49925551  0.83422784  0.18571152
   0.83408142  0.83408142  0.18568487
   0.00000000  0.00000000  0.09212609
   0.33333333  0.00000000  0.09212609
   0.66666667  0.00000000  0.09212609
   0.00000000  0.33333333  0.09212609
   0.33333333  0.33333333  0.09212609
   0.66666667  0.33333333  0.09212609
   0.00000000  0.66666667  0.09212609
   0.33333333  0.66666667  0.09212609
   0.66666667  0.66666667  0.09212609
   0.16666667  0.16666667  0.00000000
   0.50000000  0.16666667  0.00000000
   0.83333333  0.16666667  0.00000000
   0.16666667  0.50000000  0.00000000
   0.50000000  0.50000000  0.00000000
   0.83333333  0.50000000  0.00000000
   0.16666667  0.83333333  0.00000000
   0.50000000  0.83333333  0.00000000
   0.83333333  0.83333333  0.00000000
Direct configuration=    11
   0.16898254  0.16898254  0.36248636
  -0.00383141 -0.00383141  0.27993517
   0.33740714 -0.00394431  0.27996845
   0.66676347 -0.00008433  0.27788739
  -0.00394431  0.33740714  0.27996845
   0.33780407  0.33780407  0.27997002
   0.66687089  0.33336778  0.27785852
  -0.00008433  0.66676347  0.27788739
   0.33336778  0.66687089  0.27785852
   0.66663889  0.66663889  0.27870320
   0.16679868  0.16679868  0.18561823
   0.49829271  0.16676445  0.18582853
   0.83504685  0.16668872  0.18578054
   0.16676445  0.49829271  0.18582853
   0.49891215  0.49891215  0.18587177
   0.83444694  0.49901168  0.18581987
   0.16668872  0.83504685  0.18578054
   0.49901168  0.83444694  0.18581987
   0.83427415  0.83427415  0.18576961
   0.00000000  0.00000000  0.09212609
   0.33333333  0.00000000  0.09212609
   0.66666667  0.00000000  0.09212609
   0.00000000  0.33333333  0.09212609
   0.33333333  0.33333333  0.09212609
   0.66666667  0.33333333  0.09212609
   0.00000000  0.66666667  0.09212609
   0.33333333  0.66666667  0.09212609
   0.66666667  0.66666667  0.09212609
   0.16666667  0.16666667  0.00000000
   0.50000000  0.16666667  0.00000000
   0.83333333  0.16666667  0.00000000
   0.16666667  0.50000000  0.00000000
   0.50000000  0.50000000  0.00000000
   0.83333333  0.50000000  0.00000000
   0.16666667  0.83333333  0.00000000
   0.50000000  0.83333333  0.00000000
   0.83333333  0.83333333  0.00000000
Direct configuration=    12
   0.16874800  0.16874800  0.36219238
  -0.00390050 -0.00390050  0.27983338
   0.33744780 -0.00400220  0.27987393
   0.66683701 -0.00008578  0.27784891
  -0.00400220  0.33744780  0.27987393
   0.33781464  0.33781464  0.27990942
   0.66696456  0.33335987  0.27783966
  -0.00008578  0.66683701  0.27784891
   0.33335987  0.66696456  0.27783966
   0.66664355  0.66664355  0.27868073
   0.16671312  0.16671312  0.18535683
   0.49843665  0.16668517  0.18567607
   0.83503491  0.16664327  0.18567619
   0.16668517  0.49843665  0.18567607
   0.49913494  0.49913494  0.18573575
   0.83433284  0.49912388  0.18572932
   0.16664327  0.83503491  0.18567619
   0.49912388  0.83433284  0.18572932
   0.83422317  0.83422317  0.18570841
   0.00000000  0.00000000  0.09212609
   0.33333333  0.00000000  0.09212609
   0.66666667  0.00000000  0.09212609
   0.00000000  0.33333333  0.09212609
   0.33333333  0.33333333  0.09212609
   0.66666667  0.33333333  0.09212609
   0.00000000  0.66666667  0.09212609
   0.33333333  0.66666667  0.09212609
   0.66666667  0.66666667  0.09212609
   0.16666667  0.16666667  0.00000000
   0.50000000  0.16666667  0.00000000
   0.83333333  0.16666667  0.00000000
   0.16666667  0.50000000  0.00000000
   0.50000000  0.50000000  0.00000000
   0.83333333  0.50000000  0.00000000
   0.16666667  0.83333333  0.00000000
   0.50000000  0.83333333  0.00000000
   0.83333333  0.83333333  0.00000000
Direct configuration=    13
   0.16874800  0.16874800  0.36219238
  -0.00390050 -0.00390050  0.27983338
   0.33744780 -0.00400220  0.27987393
   0.66683701 -0.00008578  0.27784891
  -0.00400220  0.33744780  0.27987393
   0.33781464  0.33781464  0.27990942
   0.66696456  0.33335987  0.27783966
  -0.00008578  0.66683701  0.27784891
   0.33335987  0.66696456  0.27783966
   0.66664355  0.66664355  0.27868073
   0.16671312  0.16671312  0.18535683
   0.49843665  0.16668517  0.18567607
   0.83503491  0.16664327  0.18567619
   0.16668517  0.49843665  0.18567607
   0.49913494  0.49913494  0.18573575
   0.83433284  0.49912388  0.18572932
   0.16664327  0.83503491  0.18567619
   0.49912388  0.83433284  0.18572932
   0.83422317  0.83422317  0.18570841
   0.00000000  0.00000000  0.09212609
   0.33333333  0.00000000  0.09212609
   0.66666667  0.00000000  0.09212609
   0.00000000  0.33333333  0.09212609
   0.33333333  0.33333333  0.09212609
   0.66666667  0.33333333  0.09212609
   0.00000000  0.66666667  0.09212609
   0.33333333  0.66666667  0.09212609
   0.66666667  0.66666667  0.09212609
   0.16666667  0.16666667  0.00000000
   0.50000000  0.16666667  0.00000000
   0.83333333  0.16666667  0.00000000
   0.16666667  0.50000000  0.00000000
   0.50000000  0.50000000  0.00000000
   0.83333333  0.50000000  0.00000000
   0.16666667  0.83333333  0.00000000
   0.50000000  0.83333333  0.00000000
   0.83333333  0.83333333  0.00000000
