  64  64   0   0
  0.4587335E+02  0.1152301E-08  0.1152301E-08  0.2211100E-08  0.0000000E+00
  1.000000000000000E-004
  CAR 
 CatImpurities                           
      7.22971563     -7.72204909  301      0.49358537      1.00000000
     -7.722  0.0000E+00  0.0000E+00  0.0000E+00  0.0000E+00
     -7.672  0.0000E+00  0.0000E+00  0.0000E+00  0.0000E+00
     -7.622  0.0000E+00  0.0000E+00  0.0000E+00  0.0000E+00
     -7.573  0.0000E+00  0.0000E+00  0.0000E+00  0.0000E+00
     -7.523  0.0000E+00  0.0000E+00  0.0000E+00  0.0000E+00
     -7.473  0.0000E+00  0.0000E+00  0.0000E+00  0.0000E+00
     -7.423  0.0000E+00  0.0000E+00  0.0000E+00  0.0000E+00
     -7.373  0.0000E+00  0.0000E+00  0.0000E+00  0.0000E+00
     -7.323  0.0000E+00  0.0000E+00  0.0000E+00  0.0000E+00
     -7.273  0.3119E-16  0.3119E-16  0.1554E-17  0.1554E-17
     -7.224  0.6514E-14  0.6514E-14  0.3262E-15  0.3262E-15
     -7.174  0.8312E-12  0.8312E-12  0.4175E-13  0.4175E-13
     -7.124  0.6511E-10  0.6511E-10  0.3287E-11  0.3287E-11
     -7.074  0.3135E-08  0.3135E-08  0.1595E-09  0.1595E-09
     -7.024  0.9290E-07  0.9290E-07  0.4790E-08  0.4790E-08
     -6.974  0.1697E-05  0.1697E-05  0.8937E-07  0.8937E-07
     -6.925  0.1914E-04  0.1914E-04  0.1043E-05  0.1043E-05
     -6.875  0.1336E-03  0.1336E-03  0.7702E-05  0.7702E-05
     -6.825  0.5790E-03  0.5790E-03  0.3656E-04  0.3656E-04
     -6.775  0.1576E-02  0.1576E-02  0.1151E-03  0.1151E-03
     -6.725  0.2803E-02  0.2803E-02  0.2548E-03  0.2548E-03
     -6.675  0.3716E-02  0.3716E-02  0.4400E-03  0.4400E-03
     -6.626  0.4659E-02  0.4659E-02  0.6723E-03  0.6723E-03
     -6.576  0.5824E-02  0.5824E-02  0.9625E-03  0.9625E-03
     -6.526  0.6021E-02  0.6021E-02  0.1263E-02  0.1263E-02
     -6.476  0.5039E-02  0.5039E-02  0.1514E-02  0.1514E-02
     -6.426  0.4383E-02  0.4383E-02  0.1732E-02  0.1732E-02
     -6.376  0.4760E-02  0.4760E-02  0.1969E-02  0.1969E-02
     -6.327  0.5810E-02  0.5810E-02  0.2259E-02  0.2259E-02
     -6.277  0.6680E-02  0.6680E-02  0.2592E-02  0.2592E-02
     -6.227  0.6672E-02  0.6672E-02  0.2924E-02  0.2924E-02
     -6.177  0.6500E-02  0.6500E-02  0.3248E-02  0.3248E-02
     -6.127  0.6455E-02  0.6455E-02  0.3570E-02  0.3570E-02
     -6.077  0.5618E-02  0.5618E-02  0.3850E-02  0.3850E-02
     -6.028  0.4834E-02  0.4834E-02  0.4091E-02  0.4091E-02
     -5.978  0.5833E-02  0.5833E-02  0.4382E-02  0.4382E-02
     -5.928  0.7971E-02  0.7971E-02  0.4779E-02  0.4779E-02
     -5.878  0.9771E-02  0.9771E-02  0.5266E-02  0.5266E-02
     -5.828  0.1146E-01  0.1146E-01  0.5837E-02  0.5837E-02
     -5.778  0.1424E-01  0.1424E-01  0.6547E-02  0.6547E-02
     -5.728  0.2080E-01  0.2080E-01  0.7584E-02  0.7584E-02
     -5.679  0.3589E-01  0.3589E-01  0.9373E-02  0.9373E-02
     -5.629  0.6210E-01  0.6210E-01  0.1247E-01  0.1247E-01
     -5.579  0.9451E-01  0.9451E-01  0.1718E-01  0.1718E-01
     -5.529  0.1219E+00  0.1219E+00  0.2325E-01  0.2325E-01
     -5.479  0.1366E+00  0.1366E+00  0.3006E-01  0.3006E-01
     -5.429  0.1411E+00  0.1411E+00  0.3710E-01  0.3710E-01
     -5.380  0.1449E+00  0.1449E+00  0.4432E-01  0.4432E-01
     -5.330  0.1526E+00  0.1526E+00  0.5192E-01  0.5192E-01
     -5.280  0.1588E+00  0.1588E+00  0.5984E-01  0.5984E-01
     -5.230  0.1577E+00  0.1577E+00  0.6770E-01  0.6770E-01
     -5.180  0.1535E+00  0.1535E+00  0.7535E-01  0.7535E-01
     -5.130  0.1515E+00  0.1515E+00  0.8290E-01  0.8290E-01
     -5.081  0.1526E+00  0.1526E+00  0.9050E-01  0.9050E-01
     -5.031  0.1581E+00  0.1581E+00  0.9838E-01  0.9838E-01
     -4.981  0.1663E+00  0.1663E+00  0.1067E+00  0.1067E+00
     -4.931  0.1719E+00  0.1719E+00  0.1152E+00  0.1152E+00
     -4.881  0.1736E+00  0.1736E+00  0.1239E+00  0.1239E+00
     -4.831  0.1751E+00  0.1751E+00  0.1326E+00  0.1326E+00
     -4.782  0.1833E+00  0.1833E+00  0.1418E+00  0.1418E+00
     -4.732  0.1992E+00  0.1992E+00  0.1517E+00  0.1517E+00
     -4.682  0.2058E+00  0.2058E+00  0.1619E+00  0.1619E+00
     -4.632  0.1904E+00  0.1904E+00  0.1714E+00  0.1714E+00
     -4.582  0.1661E+00  0.1661E+00  0.1797E+00  0.1797E+00
     -4.532  0.1492E+00  0.1492E+00  0.1871E+00  0.1871E+00
     -4.483  0.1426E+00  0.1426E+00  0.1943E+00  0.1943E+00
     -4.433  0.1465E+00  0.1465E+00  0.2016E+00  0.2016E+00
     -4.383  0.1575E+00  0.1575E+00  0.2094E+00  0.2094E+00
     -4.333  0.1651E+00  0.1651E+00  0.2176E+00  0.2176E+00
     -4.283  0.1664E+00  0.1664E+00  0.2259E+00  0.2259E+00
     -4.233  0.1692E+00  0.1692E+00  0.2344E+00  0.2344E+00
     -4.183  0.1760E+00  0.1760E+00  0.2431E+00  0.2431E+00
     -4.134  0.1870E+00  0.1870E+00  0.2524E+00  0.2524E+00
     -4.084  0.2066E+00  0.2066E+00  0.2627E+00  0.2627E+00
     -4.034  0.2288E+00  0.2288E+00  0.2742E+00  0.2742E+00
     -3.984  0.2353E+00  0.2353E+00  0.2859E+00  0.2859E+00
     -3.934  0.2250E+00  0.2250E+00  0.2971E+00  0.2971E+00
     -3.884  0.2171E+00  0.2171E+00  0.3079E+00  0.3079E+00
     -3.835  0.2178E+00  0.2178E+00  0.3188E+00  0.3188E+00
     -3.785  0.2153E+00  0.2153E+00  0.3295E+00  0.3295E+00
     -3.735  0.2066E+00  0.2066E+00  0.3398E+00  0.3398E+00
     -3.685  0.2019E+00  0.2019E+00  0.3499E+00  0.3499E+00
     -3.635  0.2054E+00  0.2054E+00  0.3601E+00  0.3601E+00
     -3.585  0.2083E+00  0.2083E+00  0.3705E+00  0.3705E+00
     -3.536  0.2048E+00  0.2048E+00  0.3807E+00  0.3807E+00
     -3.486  0.2014E+00  0.2014E+00  0.3907E+00  0.3907E+00
     -3.436  0.2052E+00  0.2052E+00  0.4009E+00  0.4009E+00
     -3.386  0.2148E+00  0.2148E+00  0.4117E+00  0.4117E+00
     -3.336  0.2226E+00  0.2226E+00  0.4227E+00  0.4227E+00
     -3.286  0.2217E+00  0.2217E+00  0.4338E+00  0.4338E+00
     -3.237  0.2141E+00  0.2141E+00  0.4445E+00  0.4445E+00
     -3.187  0.2089E+00  0.2089E+00  0.4549E+00  0.4549E+00
     -3.137  0.2095E+00  0.2095E+00  0.4653E+00  0.4653E+00
     -3.087  0.2113E+00  0.2113E+00  0.4759E+00  0.4759E+00
     -3.037  0.2152E+00  0.2152E+00  0.4866E+00  0.4866E+00
     -2.987  0.2231E+00  0.2231E+00  0.4977E+00  0.4977E+00
     -2.937  0.2284E+00  0.2284E+00  0.5091E+00  0.5091E+00
     -2.888  0.2306E+00  0.2306E+00  0.5206E+00  0.5206E+00
     -2.838  0.2365E+00  0.2365E+00  0.5324E+00  0.5324E+00
     -2.788  0.2488E+00  0.2488E+00  0.5448E+00  0.5448E+00
     -2.738  0.2650E+00  0.2650E+00  0.5580E+00  0.5580E+00
     -2.688  0.2739E+00  0.2739E+00  0.5716E+00  0.5716E+00
     -2.638  0.2655E+00  0.2655E+00  0.5848E+00  0.5848E+00
     -2.589  0.2498E+00  0.2498E+00  0.5973E+00  0.5973E+00
     -2.539  0.2426E+00  0.2426E+00  0.6094E+00  0.6094E+00
     -2.489  0.2392E+00  0.2392E+00  0.6213E+00  0.6213E+00
     -2.439  0.2253E+00  0.2253E+00  0.6325E+00  0.6325E+00
     -2.389  0.1930E+00  0.1930E+00  0.6422E+00  0.6422E+00
     -2.339  0.1459E+00  0.1459E+00  0.6494E+00  0.6494E+00
     -2.290  0.9649E-01  0.9649E-01  0.6542E+00  0.6542E+00
     -2.240  0.5698E-01  0.5698E-01  0.6571E+00  0.6571E+00
     -2.190  0.3362E-01  0.3362E-01  0.6587E+00  0.6587E+00
     -2.140  0.2548E-01  0.2548E-01  0.6600E+00  0.6600E+00
     -2.090  0.2656E-01  0.2656E-01  0.6613E+00  0.6613E+00
     -2.040  0.2947E-01  0.2947E-01  0.6628E+00  0.6628E+00
     -1.991  0.2725E-01  0.2725E-01  0.6642E+00  0.6642E+00
     -1.941  0.1916E-01  0.1916E-01  0.6651E+00  0.6651E+00
     -1.891  0.1242E-01  0.1242E-01  0.6657E+00  0.6657E+00
     -1.841  0.1171E-01  0.1171E-01  0.6663E+00  0.6663E+00
     -1.791  0.1423E-01  0.1423E-01  0.6670E+00  0.6670E+00
     -1.741  0.1557E-01  0.1557E-01  0.6678E+00  0.6678E+00
     -1.692  0.1473E-01  0.1473E-01  0.6685E+00  0.6685E+00
     -1.642  0.1369E-01  0.1369E-01  0.6692E+00  0.6692E+00
     -1.592  0.1390E-01  0.1390E-01  0.6699E+00  0.6699E+00
     -1.542  0.1556E-01  0.1556E-01  0.6707E+00  0.6707E+00
     -1.492  0.1750E-01  0.1750E-01  0.6716E+00  0.6716E+00
     -1.442  0.1821E-01  0.1821E-01  0.6725E+00  0.6725E+00
     -1.392  0.1818E-01  0.1818E-01  0.6734E+00  0.6734E+00
     -1.343  0.1734E-01  0.1734E-01  0.6742E+00  0.6742E+00
     -1.293  0.1464E-01  0.1464E-01  0.6750E+00  0.6750E+00
     -1.243  0.1250E-01  0.1250E-01  0.6756E+00  0.6756E+00
     -1.193  0.1435E-01  0.1435E-01  0.6763E+00  0.6763E+00
     -1.143  0.1767E-01  0.1767E-01  0.6772E+00  0.6772E+00
     -1.093  0.1713E-01  0.1713E-01  0.6780E+00  0.6780E+00
     -1.044  0.1402E-01  0.1402E-01  0.6787E+00  0.6787E+00
     -0.994  0.1319E-01  0.1319E-01  0.6794E+00  0.6794E+00
     -0.944  0.1467E-01  0.1467E-01  0.6801E+00  0.6801E+00
     -0.894  0.1529E-01  0.1529E-01  0.6809E+00  0.6809E+00
     -0.844  0.1425E-01  0.1425E-01  0.6816E+00  0.6816E+00
     -0.794  0.1332E-01  0.1332E-01  0.6823E+00  0.6823E+00
     -0.745  0.1322E-01  0.1322E-01  0.6829E+00  0.6829E+00
     -0.695  0.1392E-01  0.1392E-01  0.6836E+00  0.6836E+00
     -0.645  0.1514E-01  0.1514E-01  0.6844E+00  0.6844E+00
     -0.595  0.1528E-01  0.1528E-01  0.6851E+00  0.6851E+00
     -0.545  0.1398E-01  0.1398E-01  0.6858E+00  0.6858E+00
     -0.495  0.1381E-01  0.1381E-01  0.6865E+00  0.6865E+00
     -0.446  0.1619E-01  0.1619E-01  0.6873E+00  0.6873E+00
     -0.396  0.1974E-01  0.1974E-01  0.6883E+00  0.6883E+00
     -0.346  0.2275E-01  0.2275E-01  0.6895E+00  0.6895E+00
     -0.296  0.2264E-01  0.2264E-01  0.6906E+00  0.6906E+00
     -0.246  0.1828E-01  0.1828E-01  0.6915E+00  0.6915E+00
     -0.196  0.1379E-01  0.1379E-01  0.6922E+00  0.6922E+00
     -0.146  0.1277E-01  0.1277E-01  0.6928E+00  0.6928E+00
     -0.097  0.1278E-01  0.1278E-01  0.6935E+00  0.6935E+00
     -0.047  0.1134E-01  0.1134E-01  0.6940E+00  0.6940E+00
      0.003  0.1029E-01  0.1029E-01  0.6945E+00  0.6945E+00
      0.053  0.1120E-01  0.1120E-01  0.6951E+00  0.6951E+00
      0.103  0.1355E-01  0.1355E-01  0.6958E+00  0.6958E+00
      0.153  0.1635E-01  0.1635E-01  0.6966E+00  0.6966E+00
      0.202  0.1909E-01  0.1909E-01  0.6975E+00  0.6975E+00
      0.252  0.2176E-01  0.2176E-01  0.6986E+00  0.6986E+00
      0.302  0.2331E-01  0.2331E-01  0.6998E+00  0.6998E+00
      0.352  0.2324E-01  0.2324E-01  0.7009E+00  0.7009E+00
      0.402  0.2291E-01  0.2291E-01  0.7021E+00  0.7021E+00
      0.452  0.2203E-01  0.2203E-01  0.7032E+00  0.7032E+00
      0.501  0.1943E-01  0.1943E-01  0.7041E+00  0.7041E+00
      0.551  0.1571E-01  0.1571E-01  0.7049E+00  0.7049E+00
      0.601  0.1154E-01  0.1154E-01  0.7055E+00  0.7055E+00
      0.651  0.7707E-02  0.7707E-02  0.7059E+00  0.7059E+00
      0.701  0.6423E-02  0.6423E-02  0.7062E+00  0.7062E+00
      0.751  0.9018E-02  0.9018E-02  0.7067E+00  0.7067E+00
      0.800  0.1454E-01  0.1454E-01  0.7074E+00  0.7074E+00
      0.850  0.2232E-01  0.2232E-01  0.7085E+00  0.7085E+00
      0.900  0.3101E-01  0.3101E-01  0.7100E+00  0.7100E+00
      0.950  0.3572E-01  0.3572E-01  0.7118E+00  0.7118E+00
      1.000  0.3400E-01  0.3400E-01  0.7135E+00  0.7135E+00
      1.050  0.2993E-01  0.2993E-01  0.7150E+00  0.7150E+00
      1.099  0.2642E-01  0.2642E-01  0.7163E+00  0.7163E+00
      1.149  0.2268E-01  0.2268E-01  0.7174E+00  0.7174E+00
      1.199  0.1857E-01  0.1857E-01  0.7184E+00  0.7184E+00
      1.249  0.1460E-01  0.1460E-01  0.7191E+00  0.7191E+00
      1.299  0.1300E-01  0.1300E-01  0.7197E+00  0.7197E+00
      1.349  0.1640E-01  0.1640E-01  0.7206E+00  0.7206E+00
      1.399  0.2198E-01  0.2198E-01  0.7217E+00  0.7217E+00
      1.448  0.2479E-01  0.2479E-01  0.7229E+00  0.7229E+00
      1.498  0.2457E-01  0.2457E-01  0.7241E+00  0.7241E+00
      1.548  0.2208E-01  0.2208E-01  0.7252E+00  0.7252E+00
      1.598  0.1731E-01  0.1731E-01  0.7261E+00  0.7261E+00
      1.648  0.1370E-01  0.1370E-01  0.7268E+00  0.7268E+00
      1.698  0.1421E-01  0.1421E-01  0.7275E+00  0.7275E+00
      1.747  0.1630E-01  0.1630E-01  0.7283E+00  0.7283E+00
      1.797  0.1693E-01  0.1693E-01  0.7291E+00  0.7291E+00
      1.847  0.1637E-01  0.1637E-01  0.7299E+00  0.7299E+00
      1.897  0.1541E-01  0.1541E-01  0.7307E+00  0.7307E+00
      1.947  0.1434E-01  0.1434E-01  0.7314E+00  0.7314E+00
      1.997  0.1457E-01  0.1457E-01  0.7322E+00  0.7322E+00
      2.046  0.1809E-01  0.1809E-01  0.7331E+00  0.7331E+00
      2.096  0.2458E-01  0.2458E-01  0.7343E+00  0.7343E+00
      2.146  0.3041E-01  0.3041E-01  0.7358E+00  0.7358E+00
      2.196  0.3142E-01  0.3142E-01  0.7374E+00  0.7374E+00
      2.246  0.2804E-01  0.2804E-01  0.7388E+00  0.7388E+00
      2.296  0.2488E-01  0.2488E-01  0.7400E+00  0.7400E+00
      2.345  0.2293E-01  0.2293E-01  0.7411E+00  0.7411E+00
      2.395  0.1930E-01  0.1930E-01  0.7421E+00  0.7421E+00
      2.445  0.1404E-01  0.1404E-01  0.7428E+00  0.7428E+00
      2.495  0.9759E-02  0.9759E-02  0.7433E+00  0.7433E+00
      2.545  0.8464E-02  0.8464E-02  0.7437E+00  0.7437E+00
      2.595  0.1203E-01  0.1203E-01  0.7443E+00  0.7443E+00
      2.645  0.2134E-01  0.2134E-01  0.7454E+00  0.7454E+00
      2.694  0.3185E-01  0.3185E-01  0.7470E+00  0.7470E+00
      2.744  0.3471E-01  0.3471E-01  0.7487E+00  0.7487E+00
      2.794  0.2734E-01  0.2734E-01  0.7501E+00  0.7501E+00
      2.844  0.1780E-01  0.1780E-01  0.7509E+00  0.7509E+00
      2.894  0.1539E-01  0.1539E-01  0.7517E+00  0.7517E+00
      2.944  0.2064E-01  0.2064E-01  0.7527E+00  0.7527E+00
      2.993  0.2636E-01  0.2636E-01  0.7541E+00  0.7541E+00
      3.043  0.2637E-01  0.2637E-01  0.7554E+00  0.7554E+00
      3.093  0.2155E-01  0.2155E-01  0.7564E+00  0.7564E+00
      3.143  0.1706E-01  0.1706E-01  0.7573E+00  0.7573E+00
      3.193  0.1584E-01  0.1584E-01  0.7581E+00  0.7581E+00
      3.243  0.1676E-01  0.1676E-01  0.7589E+00  0.7589E+00
      3.292  0.1838E-01  0.1838E-01  0.7598E+00  0.7598E+00
      3.342  0.2044E-01  0.2044E-01  0.7609E+00  0.7609E+00
      3.392  0.2214E-01  0.2214E-01  0.7620E+00  0.7620E+00
      3.442  0.2182E-01  0.2182E-01  0.7630E+00  0.7630E+00
      3.492  0.1907E-01  0.1908E-01  0.7640E+00  0.7640E+00
      3.542  0.1613E-01  0.1613E-01  0.7648E+00  0.7648E+00
      3.591  0.1566E-01  0.1566E-01  0.7656E+00  0.7656E+00
      3.641  0.1840E-01  0.1840E-01  0.7665E+00  0.7665E+00
      3.691  0.2423E-01  0.2423E-01  0.7677E+00  0.7677E+00
      3.741  0.3287E-01  0.3287E-01  0.7693E+00  0.7693E+00
      3.791  0.4127E-01  0.4127E-01  0.7714E+00  0.7714E+00
      3.841  0.4453E-01  0.4453E-01  0.7736E+00  0.7736E+00
      3.890  0.4161E-01  0.4161E-01  0.7757E+00  0.7757E+00
      3.940  0.3552E-01  0.3552E-01  0.7775E+00  0.7775E+00
      3.990  0.2863E-01  0.2863E-01  0.7789E+00  0.7789E+00
      4.040  0.2247E-01  0.2247E-01  0.7800E+00  0.7800E+00
      4.090  0.1976E-01  0.1976E-01  0.7810E+00  0.7810E+00
      4.140  0.2374E-01  0.2374E-01  0.7822E+00  0.7822E+00
      4.190  0.3344E-01  0.3344E-01  0.7838E+00  0.7838E+00
      4.239  0.3916E-01  0.3916E-01  0.7858E+00  0.7858E+00
      4.289  0.3290E-01  0.3290E-01  0.7874E+00  0.7874E+00
      4.339  0.2114E-01  0.2114E-01  0.7885E+00  0.7885E+00
      4.389  0.1448E-01  0.1448E-01  0.7892E+00  0.7892E+00
      4.439  0.1462E-01  0.1462E-01  0.7899E+00  0.7899E+00
      4.489  0.1775E-01  0.1775E-01  0.7908E+00  0.7908E+00
      4.538  0.2106E-01  0.2105E-01  0.7919E+00  0.7919E+00
      4.588  0.2461E-01  0.2461E-01  0.7931E+00  0.7931E+00
      4.638  0.2958E-01  0.2958E-01  0.7946E+00  0.7946E+00
      4.688  0.3493E-01  0.3492E-01  0.7963E+00  0.7963E+00
      4.738  0.3716E-01  0.3716E-01  0.7982E+00  0.7982E+00
      4.788  0.3562E-01  0.3562E-01  0.7999E+00  0.7999E+00
      4.837  0.3435E-01  0.3435E-01  0.8017E+00  0.8017E+00
      4.887  0.3397E-01  0.3397E-01  0.8033E+00  0.8033E+00
      4.937  0.3078E-01  0.3078E-01  0.8049E+00  0.8049E+00
      4.987  0.2594E-01  0.2594E-01  0.8062E+00  0.8062E+00
      5.037  0.2372E-01  0.2372E-01  0.8074E+00  0.8074E+00
      5.087  0.2484E-01  0.2484E-01  0.8086E+00  0.8086E+00
      5.136  0.2826E-01  0.2826E-01  0.8100E+00  0.8100E+00
      5.186  0.3278E-01  0.3278E-01  0.8116E+00  0.8116E+00
      5.236  0.3626E-01  0.3626E-01  0.8134E+00  0.8134E+00
      5.286  0.3515E-01  0.3515E-01  0.8152E+00  0.8152E+00
      5.336  0.2696E-01  0.2697E-01  0.8165E+00  0.8165E+00
      5.386  0.1653E-01  0.1653E-01  0.8174E+00  0.8174E+00
      5.436  0.1240E-01  0.1239E-01  0.8180E+00  0.8180E+00
      5.485  0.1656E-01  0.1655E-01  0.8188E+00  0.8188E+00
      5.535  0.2449E-01  0.2449E-01  0.8200E+00  0.8200E+00
      5.585  0.3110E-01  0.3110E-01  0.8216E+00  0.8216E+00
      5.635  0.3392E-01  0.3393E-01  0.8233E+00  0.8233E+00
      5.685  0.3469E-01  0.3470E-01  0.8250E+00  0.8250E+00
      5.735  0.3621E-01  0.3622E-01  0.8268E+00  0.8268E+00
      5.784  0.3739E-01  0.3739E-01  0.8287E+00  0.8287E+00
      5.834  0.3654E-01  0.3653E-01  0.8305E+00  0.8305E+00
      5.884  0.3635E-01  0.3633E-01  0.8323E+00  0.8323E+00
      5.934  0.3888E-01  0.3884E-01  0.8342E+00  0.8342E+00
      5.984  0.4178E-01  0.4168E-01  0.8363E+00  0.8363E+00
      6.034  0.4268E-01  0.4258E-01  0.8384E+00  0.8384E+00
      6.083  0.3941E-01  0.3941E-01  0.8404E+00  0.8404E+00
      6.133  0.3028E-01  0.3039E-01  0.8419E+00  0.8419E+00
      6.183  0.1911E-01  0.1922E-01  0.8429E+00  0.8429E+00
      6.233  0.1123E-01  0.1127E-01  0.8434E+00  0.8434E+00
      6.283  0.6638E-02  0.6643E-02  0.8438E+00  0.8438E+00
      6.333  0.3337E-02  0.3331E-02  0.8439E+00  0.8439E+00
      6.382  0.1178E-02  0.1174E-02  0.8440E+00  0.8440E+00
      6.432  0.2681E-03  0.2669E-03  0.8440E+00  0.8440E+00
      6.482  0.3822E-04  0.3800E-04  0.8440E+00  0.8440E+00
      6.532  0.3381E-05  0.3357E-05  0.8440E+00  0.8440E+00
      6.582  0.1849E-06  0.1833E-06  0.8440E+00  0.8440E+00
      6.632  0.6233E-08  0.6171E-08  0.8440E+00  0.8440E+00
      6.681  0.1293E-09  0.1279E-09  0.8440E+00  0.8440E+00
      6.731  0.1650E-11  0.1629E-11  0.8440E+00  0.8440E+00
      6.781  0.1292E-13  0.1274E-13  0.8440E+00  0.8440E+00
      6.831  0.6237E-16  0.6237E-16  0.8440E+00  0.8440E+00
      6.881  0.0000E+00  0.0000E+00  0.8440E+00  0.8440E+00
      6.931  0.0000E+00  0.0000E+00  0.8440E+00  0.8440E+00
      6.981  0.0000E+00  0.0000E+00  0.8440E+00  0.8440E+00
      7.030  0.0000E+00  0.0000E+00  0.8440E+00  0.8440E+00
      7.080  0.0000E+00  0.0000E+00  0.8440E+00  0.8440E+00
      7.130  0.0000E+00  0.0000E+00  0.8440E+00  0.8440E+00
      7.180  0.0000E+00  0.0000E+00  0.8440E+00  0.8440E+00
      7.230  0.0000E+00  0.0000E+00  0.8440E+00  0.8440E+00
