 vasp.5.4.4.18Apr17-6-g9f103f2a35 (build Sep 18 2020 13:42:41) complex          
  
 executed on                Eagle date 2022.05.31  15:20:48
 running on   36 total cores
 distrk:  each k-point on   36 cores,    1 groups
 distr:  one band on NCORES_PER_BAND=  36 cores,    1 groups


--------------------------------------------------------------------------------------------------------


 INCAR:
 POTCAR:    PAW_PBE Ag 02Apr2005                  

 ----------------------------------------------------------------------------- 
|                                                                             |
|           W    W    AA    RRRRR   N    N  II  N    N   GGGG   !!!           |
|           W    W   A  A   R    R  NN   N  II  NN   N  G    G  !!!           |
|           W    W  A    A  R    R  N N  N  II  N N  N  G       !!!           |
|           W WW W  AAAAAA  RRRRR   N  N N  II  N  N N  G  GGG   !            |
|           WW  WW  A    A  R   R   N   NN  II  N   NN  G    G                |
|           W    W  A    A  R    R  N    N  II  N    N   GGGG   !!!           |
|                                                                             |
|      For optimal performance we recommend to set                            |
|        NCORE= 4 - approx SQRT( number of cores)                             |
|      NCORE specifies how many cores store one orbital (NPAR=cpu/NCORE).     |
|      This setting can  greatly improve the performance of VASP for DFT.     |
|      The default,   NCORE=1            might be grossly inefficient         |
|      on modern multi-core architectures or massively parallel machines.     |
|      Do your own testing !!!!                                               |
|      Unfortunately you need to use the default for GW and RPA calculations. |
|      (for HF NCORE is supported but not extensively tested yet)             |
|                                                                             |
 ----------------------------------------------------------------------------- 

 POTCAR:    PAW_PBE Ag 02Apr2005                  
   VRHFIN =Ag : s1 d10                                                          
   LEXCH  = PE                                                                  
   EATOM  =  1037.2675 eV,   76.2370 Ry                                         
                                                                                
   TITEL  = PAW_PBE Ag 02Apr2005                                                
   LULTRA =        F    use ultrasoft PP ?                                      
   IUNSCR =        1    unscreen: 0-lin 1-nonlin 2-no                           
   RPACOR =    2.000    partial core radius                                     
   POMASS =  107.868; ZVAL   =   11.000    mass and valenz                      
   RCORE  =    2.500    outmost cutoff radius                                   
   RWIGS  =    2.840; RWIGS  =    1.503    wigner-seitz radius (au A)           
   ENMAX  =  249.844; ENMIN  =  187.383 eV                                      
   ICORE  =        3    local potential                                         
   LCOR   =        T    correct aug charges                                     
   LPAW   =        T    paw PP                                                  
   EAUG   =  412.496                                                            
   DEXC   =    0.000                                                            
   RMAX   =    2.560    core radius for proj-oper                               
   RAUG   =    1.300    factor for augmentation sphere                          
   RDEP   =    2.576    radius for radial grids                                 
   RDEPT  =    2.072    core radius for aug-charge                              
                                                                                
   Atomic configuration                                                         
   12 entries                                                                   
     n  l   j            E        occ.                                          
     1  0  0.50    -25324.9161   2.0000                                         
     2  0  0.50     -3728.5341   2.0000                                         
     2  1  1.50     -3344.0404   6.0000                                         
     3  0  0.50      -683.5581   2.0000                                         
     3  1  1.50      -557.3225   6.0000                                         
     3  2  2.50      -358.3853  10.0000                                         
     4  0  0.50       -95.0341   2.0000                                         
     4  1  1.50       -58.5511   6.0000                                         
     4  2  2.50        -7.4440  10.0000                                         
     5  0  0.50        -4.4045   1.0000                                         
     5  1  0.50        -1.3606   0.0000                                         
     4  3  2.50        -1.3606   0.0000                                         
   Description                                                                  
     l       E           TYP  RCUT    TYP  RCUT                                 
     2     -7.4439781     23  2.400                                             
     2     -8.8045607     23  2.400                                             
     0     -4.4044681     23  2.400                                             
     0      1.9520038     23  2.400                                             
     1     -1.3605826     23  2.500                                             
     1     27.2116520     23  2.500                                             
     3     -4.0817478     23  2.400                                             
  local pseudopotential read in
  partial core-charges read in
  partial kinetic energy density read in
  atomic valenz-charges read in
  non local Contribution for L=           2  read in
    real space projection operators read in
  non local Contribution for L=           2  read in
    real space projection operators read in
  non local Contribution for L=           0  read in
    real space projection operators read in
  non local Contribution for L=           0  read in
    real space projection operators read in
  non local Contribution for L=           1  read in
    real space projection operators read in
  non local Contribution for L=           1  read in
    real space projection operators read in
    PAW grid and wavefunctions read in
 
   number of l-projection  operators is LMAX  =           6
   number of lm-projection operators is LMMAX =          18
 
 Optimization of the real space projectors (new method)

 maximal supplied QI-value         = 15.12
 optimisation between [QCUT,QGAM] = [ 10.13, 20.41] = [ 28.73,116.64] Ry 
 Optimized for a Real-space Cutoff    1.55 Angstroem

   l    n(q)    QCUT    max X(q) W(low)/X(q) W(high)/X(q)  e(spline) 
   2      9    10.129    53.897    0.12E-03    0.59E-04    0.12E-06
   2      9    10.129    52.416    0.12E-03    0.58E-04    0.12E-06
   0      9    10.129   122.045    0.47E-04    0.63E-05    0.83E-07
   0      9    10.129    73.629    0.43E-04    0.60E-05    0.80E-07
   1      9    10.129    15.255    0.12E-03    0.81E-05    0.12E-06
   1      9    10.129     9.562    0.10E-03    0.55E-05    0.10E-06
  PAW_PBE Ag 02Apr2005                  :
 energy of atom  1       EATOM=-1037.2675
 kinetic energy error for atom=    0.0091 (will be added to EATOM!!)
 
 
 POSCAR: Ag                                      
  positions in cartesian coordinates
  No initial velocities read in
 exchange correlation table for  LEXCH =        8
   RHO(1)=    0.500       N(1)  =     2000
   RHO(2)=  100.500       N(2)  =     4000

 VTST: version 3.2, (02/03/18)

 CHAIN: initializing optimizer
 
 OPT: Using LBFGS optimizer
 OPT: LBFGS, Init
 OPT: LBFGS, MEMORY             20
 OPT: LBFGS, IMAGES              1
 OPT: LBFGS, MAXMOVE      0.200000
 OPT: LBFGS, LGLOBAL      T
 OPT: LBFGS, INVCURV      0.010000
 OPT: LBFGS, LLINEOPT      F
 OPT: LBFGS, FDSTEP       0.005000
 OPT: LBFGS, LAUTOSCALE      T
 OPT: LBFGS, DAMPING      2.000000
 
 CHAIN: Read ICHAIN            0
 
 POSCAR: Ag                                      
  positions in cartesian coordinates
  No initial velocities read in
 


--------------------------------------------------------------------------------------------------------


 ion  position               nearest neighbor table
   1  0.125  0.125  0.000-   2 2.88   4 2.88   5 2.88  13 2.88  17 2.88  18 2.88  21 2.88  22 2.88

   2  0.375  0.125  0.000-   1 2.88   3 2.88   6 2.88  14 2.88  18 2.88  19 2.88  22 2.88  23 2.88

   3  0.625  0.125  0.000-   2 2.88   4 2.88   7 2.88  15 2.88  19 2.88  20 2.88  23 2.88  24 2.88

   4  0.875  0.125  0.000-   1 2.88   3 2.88   8 2.88  16 2.88  17 2.88  20 2.88  21 2.88  24 2.88

   5  0.125  0.375  0.000-   1 2.88   6 2.88   8 2.88   9 2.88  21 2.88  22 2.88  25 2.88  26 2.88

   6  0.375  0.375  0.000-   2 2.88   5 2.88   7 2.88  10 2.88  22 2.88  23 2.88  26 2.88  27 2.88

   7  0.625  0.375  0.000-   3 2.88   6 2.88   8 2.88  11 2.88  23 2.88  24 2.88  27 2.88  28 2.88

   8  0.875  0.375  0.000-   4 2.88   5 2.88   7 2.88  12 2.88  21 2.88  24 2.88  25 2.88  28 2.88

   9  0.125  0.625  0.000-   5 2.88  10 2.88  12 2.88  13 2.88  25 2.88  26 2.88  29 2.88  30 2.88

  10  0.375  0.625  0.000-   6 2.88   9 2.88  11 2.88  14 2.88  26 2.88  27 2.88  30 2.88  31 2.88

  11  0.625  0.625  0.000-   7 2.88  10 2.88  12 2.88  15 2.88  27 2.88  28 2.88  31 2.88  32 2.88

  12  0.875  0.625  0.000-   8 2.88   9 2.88  11 2.88  16 2.88  25 2.88  28 2.88  29 2.88  32 2.88

  13  0.125  0.875  0.000-   1 2.88   9 2.88  14 2.88  16 2.88  17 2.88  18 2.88  29 2.88  30 2.88

  14  0.375  0.875  0.000-   2 2.88  10 2.88  13 2.88  15 2.88  18 2.88  19 2.88  30 2.88  31 2.88

  15  0.625  0.875  0.000-   3 2.88  11 2.88  14 2.88  16 2.88  19 2.88  20 2.88  31 2.88  32 2.88

  16  0.875  0.875  0.000-   4 2.88  12 2.88  13 2.88  15 2.88  17 2.88  20 2.88  29 2.88  32 2.88

  17  0.000  0.000  0.092-  33 2.88  36 2.88  45 2.88  48 2.88  18 2.88  20 2.88  21 2.88  29 2.88
                             1 2.88   4 2.88  13 2.88  16 2.88
  18  0.250  0.000  0.092-  33 2.88  34 2.88  45 2.88  46 2.88  17 2.88  19 2.88  22 2.88  30 2.88
                             1 2.88   2 2.88  13 2.88  14 2.88
  19  0.500  0.000  0.092-  34 2.88  35 2.88  46 2.88  47 2.88  18 2.88  20 2.88  23 2.88  31 2.88
                             2 2.88   3 2.88  14 2.88  15 2.88
  20  0.750  0.000  0.092-  35 2.88  36 2.88  47 2.88  48 2.88  17 2.88  19 2.88  24 2.88  32 2.88
                             3 2.88   4 2.88  15 2.88  16 2.88
  21  0.000  0.250  0.092-  33 2.88  36 2.88  37 2.88  40 2.88  17 2.88  22 2.88  24 2.88  25 2.88
                             1 2.88   4 2.88   5 2.88   8 2.88
  22  0.250  0.250  0.092-  33 2.88  34 2.88  37 2.88  38 2.88  18 2.88  21 2.88  23 2.88  26 2.88
                             1 2.88   2 2.88   5 2.88   6 2.88
  23  0.500  0.250  0.092-  34 2.88  35 2.88  38 2.88  39 2.88  19 2.88  22 2.88  24 2.88  27 2.88
                             2 2.88   3 2.88   6 2.88   7 2.88
  24  0.750  0.250  0.092-  35 2.88  36 2.88  39 2.88  40 2.88  20 2.88  21 2.88  23 2.88  28 2.88
                             3 2.88   4 2.88   7 2.88   8 2.88
  25  0.000  0.500  0.092-  37 2.88  40 2.88  41 2.88  44 2.88  21 2.88  26 2.88  28 2.88  29 2.88
                             5 2.88   8 2.88   9 2.88  12 2.88
  26  0.250  0.500  0.092-  37 2.88  38 2.88  41 2.88  42 2.88  22 2.88  25 2.88  27 2.88  30 2.88
                             5 2.88   6 2.88   9 2.88  10 2.88
  27  0.500  0.500  0.092-  38 2.88  39 2.88  42 2.88  43 2.88  23 2.88  26 2.88  28 2.88  31 2.88
                             6 2.88   7 2.88  10 2.88  11 2.88
  28  0.750  0.500  0.092-  39 2.88  40 2.88  43 2.88  44 2.88  24 2.88  25 2.88  27 2.88  32 2.88
                             7 2.88   8 2.88  11 2.88  12 2.88
  29  0.000  0.750  0.092-  41 2.88  44 2.88  45 2.88  48 2.88  17 2.88  25 2.88  30 2.88  32 2.88
                             9 2.88  12 2.88  13 2.88  16 2.88
  30  0.250  0.750  0.092-  41 2.88  42 2.88  45 2.88  46 2.88  18 2.88  26 2.88  29 2.88  31 2.88
                             9 2.88  10 2.88  13 2.88  14 2.88
  31  0.500  0.750  0.092-  42 2.88  43 2.88  46 2.88  47 2.88  19 2.88  27 2.88  30 2.88  32 2.88
                            10 2.88  11 2.88  14 2.88  15 2.88
  32  0.750  0.750  0.092-  43 2.88  44 2.88  47 2.88  48 2.88  20 2.88  28 2.88  29 2.88  31 2.88
                            11 2.88  12 2.88  15 2.88  16 2.88
  33  0.125  0.125  0.184-  17 2.88  18 2.88  21 2.88  22 2.88  34 2.88  36 2.88  37 2.88  45 2.88
                            49 2.88  50 2.88  53 2.88  54 2.88
  34  0.375  0.125  0.184-  18 2.88  19 2.88  22 2.88  23 2.88  33 2.88  35 2.88  38 2.88  46 2.88
                            50 2.88  51 2.88  54 2.88  55 2.88
  35  0.625  0.125  0.184-  19 2.88  20 2.88  23 2.88  24 2.88  34 2.88  36 2.88  39 2.88  47 2.88
                            51 2.88  52 2.88  55 2.88  56 2.88
  36  0.875  0.125  0.184-  17 2.88  20 2.88  21 2.88  24 2.88  33 2.88  35 2.88  40 2.88  48 2.88
                            49 2.88  52 2.88  53 2.88  56 2.88
  37  0.125  0.375  0.184-  21 2.88  22 2.88  25 2.88  26 2.88  33 2.88  38 2.88  40 2.88  41 2.88
                            53 2.88  54 2.88  57 2.88  58 2.88
  38  0.375  0.375  0.184-  22 2.88  23 2.88  26 2.88  27 2.88  34 2.88  37 2.88  39 2.88  42 2.88
                            54 2.88  55 2.88  58 2.88  59 2.88
  39  0.625  0.375  0.184-  23 2.88  24 2.88  27 2.88  28 2.88  35 2.88  38 2.88  40 2.88  43 2.88
                            55 2.88  56 2.88  59 2.88  60 2.88
  40  0.875  0.375  0.184-  21 2.88  24 2.88  25 2.88  28 2.88  36 2.88  37 2.88  39 2.88  44 2.88
                            53 2.88  56 2.88  57 2.88  60 2.88
  41  0.125  0.625  0.184-  25 2.88  26 2.88  29 2.88  30 2.88  37 2.88  42 2.88  44 2.88  45 2.88
                            57 2.88  58 2.88  61 2.88  62 2.88
  42  0.375  0.625  0.184-  26 2.88  27 2.88  30 2.88  31 2.88  38 2.88  41 2.88  43 2.88  46 2.88
                            58 2.88  59 2.88  62 2.88  63 2.88
  43  0.625  0.625  0.184-  27 2.88  28 2.88  31 2.88  32 2.88  39 2.88  42 2.88  44 2.88  47 2.88
                            59 2.88  60 2.88  63 2.88  64 2.88
  44  0.875  0.625  0.184-  25 2.88  28 2.88  29 2.88  32 2.88  40 2.88  41 2.88  43 2.88  48 2.88
                            57 2.88  60 2.88  61 2.88  64 2.88
  45  0.125  0.875  0.184-  17 2.88  18 2.88  29 2.88  30 2.88  33 2.88  41 2.88  46 2.88  48 2.88
                            49 2.88  50 2.88  61 2.88  62 2.88
  46  0.375  0.875  0.184-  18 2.88  19 2.88  30 2.88  31 2.88  34 2.88  42 2.88  45 2.88  47 2.88
                            50 2.88  51 2.88  62 2.88  63 2.88
  47  0.625  0.875  0.184-  19 2.88  20 2.88  31 2.88  32 2.88  35 2.88  43 2.88  46 2.88  48 2.88
                            51 2.88  52 2.88  63 2.88  64 2.88
  48  0.875  0.875  0.184-  17 2.88  20 2.88  29 2.88  32 2.88  36 2.88  44 2.88  45 2.88  47 2.88
                            49 2.88  52 2.88  61 2.88  64 2.88
  49  0.000  0.000  0.276-  50 2.88  52 2.88  53 2.88  61 2.88  33 2.88  36 2.88  45 2.88  48 2.88

  50  0.250  0.000  0.276-  49 2.88  51 2.88  54 2.88  62 2.88  33 2.88  34 2.88  45 2.88  46 2.88

  51  0.500  0.000  0.276-  50 2.88  52 2.88  55 2.88  63 2.88  34 2.88  35 2.88  46 2.88  47 2.88

  52  0.750  0.000  0.276-  49 2.88  51 2.88  56 2.88  64 2.88  35 2.88  36 2.88  47 2.88  48 2.88

  53  0.000  0.250  0.276-  49 2.88  54 2.88  56 2.88  57 2.88  33 2.88  36 2.88  37 2.88  40 2.88

  54  0.250  0.250  0.276-  50 2.88  53 2.88  55 2.88  58 2.88  33 2.88  34 2.88  37 2.88  38 2.88

  55  0.500  0.250  0.276-  51 2.88  54 2.88  56 2.88  59 2.88  34 2.88  35 2.88  38 2.88  39 2.88

  56  0.750  0.250  0.276-  52 2.88  53 2.88  55 2.88  60 2.88  35 2.88  36 2.88  39 2.88  40 2.88

  57  0.000  0.500  0.276-  53 2.88  58 2.88  60 2.88  61 2.88  37 2.88  40 2.88  41 2.88  44 2.88

  58  0.250  0.500  0.276-  54 2.88  57 2.88  59 2.88  62 2.88  37 2.88  38 2.88  41 2.88  42 2.88

  59  0.500  0.500  0.276-  55 2.88  58 2.88  60 2.88  63 2.88  38 2.88  39 2.88  42 2.88  43 2.88

  60  0.750  0.500  0.276-  56 2.88  57 2.88  59 2.88  64 2.88  39 2.88  40 2.88  43 2.88  44 2.88

  61  0.000  0.750  0.276-  49 2.88  57 2.88  62 2.88  64 2.88  41 2.88  44 2.88  45 2.88  48 2.88

  62  0.250  0.750  0.276-  50 2.88  58 2.88  61 2.88  63 2.88  41 2.88  42 2.88  45 2.88  46 2.88

  63  0.500  0.750  0.276-  51 2.88  59 2.88  62 2.88  64 2.88  42 2.88  43 2.88  46 2.88  47 2.88

  64  0.750  0.750  0.276-  52 2.88  60 2.88  61 2.88  63 2.88  43 2.88  44 2.88  47 2.88  48 2.88

 
  LATTYP: Found a simple tetragonal cell.
 ALAT       =    11.5230121062
 C/A-ratio  =     1.9188559203
  
  Lattice vectors:
  
 A1 = (  11.5230121062,   0.0000000000,   0.0000000000)
 A2 = (   0.0000000000,  11.5230121062,   0.0000000000)
 A3 = (   0.0000000000,   0.0000000000,  22.1110000000)


Analysis of symmetry for initial positions (statically):
=====================================================================
 Subroutine PRICEL returns following result:
 
  LATTYP: Found a simple tetragonal cell.
 ALAT       =     2.8807530266
 C/A-ratio  =     7.6754236813
  
  Lattice vectors:
  
 A1 = (   2.8807530266,   0.0000000000,   0.0000000000)
 A2 = (   0.0000000000,   2.8807530266,   0.0000000000)
 A3 = (   0.0000000000,   0.0000000000,  22.1110000000)
 
  16 primitive cells build up your supercell.
 

 Routine SETGRP: Setting up the symmetry group for a 
 simple tetragonal supercell.


 Subroutine GETGRP returns: Found 16 space group operations
 (whereof  8 operations were pure point group operations)
 out of a pool of 16 trial point group operations.


The static configuration has the point symmetry C_4v.
 The point group associated with its full space group is D_4h.


Analysis of symmetry for dynamics (positions and initial velocities):
=====================================================================
 Subroutine PRICEL returns following result:
 
  LATTYP: Found a simple tetragonal cell.
 ALAT       =     2.8807530266
 C/A-ratio  =     7.6754236813
  
  Lattice vectors:
  
 A1 = (   2.8807530266,   0.0000000000,   0.0000000000)
 A2 = (   0.0000000000,   2.8807530266,   0.0000000000)
 A3 = (   0.0000000000,   0.0000000000,  22.1110000000)
 
  16 primitive cells build up your supercell.
 

 Routine SETGRP: Setting up the symmetry group for a 
 simple tetragonal supercell.


 Subroutine GETGRP returns: Found 16 space group operations
 (whereof  8 operations were pure point group operations)
 out of a pool of 16 trial point group operations.


The dynamic configuration has the point symmetry C_4v.
 The point group associated with its full space group is D_4h.


Analysis of constrained symmetry for selective dynamics:
=====================================================================
 Subroutine PRICEL returns following result:
 
  LATTYP: Found a simple tetragonal cell.
 ALAT       =     2.8807530266
 C/A-ratio  =     7.6754236813
  
  Lattice vectors:
  
 A1 = (   2.8807530266,   0.0000000000,   0.0000000000)
 A2 = (   0.0000000000,   2.8807530266,   0.0000000000)
 A3 = (   0.0000000000,   0.0000000000,  22.1110000000)
 
  16 primitive cells build up your supercell.
 

 Routine SETGRP: Setting up the symmetry group for a 
 simple tetragonal supercell.


 Subroutine GETGRP returns: Found  8 space group operations
 (whereof  8 operations were pure point group operations)
 out of a pool of 16 trial point group operations.


The constrained configuration has the point symmetry C_4v.


Analysis of structural, dynamic, and magnetic symmetry:
=====================================================================
 Subroutine PRICEL returns following result:
 
  LATTYP: Found a simple tetragonal cell.
 ALAT       =     2.8807530266
 C/A-ratio  =     7.6754236813
  
  Lattice vectors:
  
 A1 = (   2.8807530266,   0.0000000000,   0.0000000000)
 A2 = (   0.0000000000,   2.8807530266,   0.0000000000)
 A3 = (   0.0000000000,   0.0000000000,  22.1110000000)
 
  16 primitive cells build up your supercell.
 

 Routine SETGRP: Setting up the symmetry group for a 
 simple tetragonal supercell.


 Subroutine GETGRP returns: Found  8 space group operations
 (whereof  8 operations were pure point group operations)
 out of a pool of 16 trial point group operations.


The magnetic configuration has the point symmetry C_4v.


 Subroutine INISYM returns: Found  8 space group operations
 (whereof  8 operations are pure point group operations),
 and found    16 'primitive' translations

 
 
 KPOINTS: kpoints                                 

Automatic generation of k-mesh.
Space group operators:
 irot       det(A)        alpha          n_x          n_y          n_z        tau_x        tau_y        tau_z
    1     1.000000     0.000001     1.000000     0.000000     0.000000     0.000000     0.000000     0.000000
    2     1.000000    90.000000     0.000000     0.000000    -1.000000     0.000000     0.000000     0.000000
    3     1.000000   179.999999     0.000000     0.000000     1.000000     0.000000     0.000000     0.000000
    4     1.000000    90.000000     0.000000     0.000000     1.000000     0.000000     0.000000     0.000000
    5    -1.000000   180.000000     0.000000     1.000000     0.000000     0.000000     0.000000     0.000000
    6    -1.000000   180.000000     0.707107     0.707107     0.000000     0.000000     0.000000     0.000000
    7    -1.000000   180.000000     1.000000     0.000000     0.000000     0.000000     0.000000     0.000000
    8    -1.000000   180.000000     0.707107    -0.707107     0.000000     0.000000     0.000000     0.000000
 
 Subroutine IBZKPT returns following result:
 ===========================================
 
 Found      3 irreducible k-points:
 
 Following reciprocal coordinates:
            Coordinates               Weight
  0.125000  0.125000  0.000000      4.000000
  0.375000  0.125000  0.000000      8.000000
  0.375000  0.375000  0.000000      4.000000
 
 Following cartesian coordinates:
            Coordinates               Weight
  0.010848  0.010848  0.000000      4.000000
  0.032544  0.010848  0.000000      8.000000
  0.032544  0.032544  0.000000      4.000000
 


--------------------------------------------------------------------------------------------------------




 Dimension of arrays:
   k-points           NKPTS =      3   k-points in BZ     NKDIM =      3   number of bands    NBANDS=    422
   number of dos      NEDOS =    301   number of ions     NIONS =     64
   non local maximal  LDIM  =      6   non local SUM 2l+1 LMDIM =     18
   total plane-waves  NPLWV = 921600
   max r-space proj   IRMAX =   4982   max aug-charges    IRDMAX=  15632
   dimension x,y,z NGX =    80 NGY =   80 NGZ =  144
   dimension x,y,z NGXF=   160 NGYF=  160 NGZF=  288
   support grid    NGXF=   160 NGYF=  160 NGZF=  288
   ions per type =              64
   NGX,Y,Z   is equivalent  to a cutoff of  11.54, 11.54, 10.83 a.u.
   NGXF,Y,Z  is equivalent  to a cutoff of  23.08, 23.08, 21.65 a.u.

 SYSTEM =  CatImpurities                           
 POSCAR =  Ag                                      

 Startparameter for this run:
   NWRITE =      2    write-flag & timer
   PREC   = accura    normal or accurate (medium, high low for compatibility)
   ISTART =      0    job   : 0-new  1-cont  2-samecut
   ICHARG =      2    charge: 1-file 2-atom 10-const
   ISPIN  =      2    spin polarized calculation?
   LNONCOLLINEAR =      F non collinear calculations
   LSORBIT =      F    spin-orbit coupling
   INIWAV =      1    electr: 0-lowe 1-rand  2-diag
   LASPH  =      F    aspherical Exc in radial PAW
   METAGGA=      F    non-selfconsistent MetaGGA calc.

 Electronic Relaxation 1
   ENCUT  =  400.0 eV  29.40 Ry    5.42 a.u.  18.79 18.79 36.06*2*pi/ulx,y,z
   ENINI  =  400.0     initial cutoff
   ENAUG  =  412.5 eV  augmentation charge cutoff
   NELM   =   1000;   NELMIN=  2; NELMDL= -5     # of ELM steps 
   EDIFF  = 0.1E-03   stopping-criterion for ELM
   LREAL  =      T    real-space projection
   NLSPLINE    = F    spline interpolate recip. space projectors
   LCOMPAT=      F    compatible to vasp.4.4
   GGA_COMPAT  = T    GGA compatible to vasp.4.4-vasp.4.6
   LMAXPAW     = -100 max onsite density
   LMAXMIX     =    2 max onsite mixed and CHGCAR
   VOSKOWN=      0    Vosko Wilk Nusair interpolation
   ROPT   =   -0.00025
 Ionic relaxation
   EDIFFG = -.2E-01   stopping-criterion for IOM
   NSW    =    500    number of steps for IOM
   NBLOCK =      1;   KBLOCK =    500    inner block; outer block 
   IBRION =      3    ionic relax: 0-MD 1-quasi-New 2-CG
   NFREE  =      0    steps in history (QN), initial steepest desc. (CG)
   ISIF   =      2    stress and relaxation
   IWAVPR =     11    prediction:  0-non 1-charg 2-wave 3-comb
   ISYM   =      2    0-nonsym 1-usesym 2-fastsym
   LCORR  =      T    Harris-Foulkes like correction to forces

   POTIM  = 0.0000    time-step for ionic-motion
   TEIN   =    0.0    initial temperature
   TEBEG  =    0.0;   TEEND  =   0.0 temperature during run
   SMASS  =  -3.00    Nose mass-parameter (am)
   estimated Nose-frequenzy (Omega)   =  0.10E-29 period in steps =  0.00 mass=  -0.303E-26a.u.
   SCALEE = 1.0000    scale energy and forces
   NPACO  =    256;   APACO  = 16.0  distance and # of slots for P.C.
   PSTRESS=    0.0 pullay stress

  Mass of Ions in am
   POMASS = 107.87
  Ionic Valenz
   ZVAL   =  11.00
  Atomic Wigner-Seitz radii
   RWIGS  =  -1.00
  virtual crystal weights 
   VCA    =   1.00
   NELECT =     704.0000    total number of electrons
   NUPDOWN=      -1.0000    fix difference up-down

 DOS related values:
   EMIN   =  10.00;   EMAX   =-10.00  energy-range for DOS
   EFERMI =   0.00
   ISMEAR =     0;   SIGMA  =   0.10  broadening in eV -4-tet -1-fermi 0-gaus

 Electronic relaxation 2 (details)
   IALGO  =     68    algorithm
   LDIAG  =      T    sub-space diagonalisation (order eigenvalues)
   LSUBROT=      F    optimize rotation matrix (better conditioning)
   TURBO    =      0    0=normal 1=particle mesh
   IRESTART =      0    0=no restart 2=restart with 2 vectors
   NREBOOT  =      0    no. of reboots
   NMIN     =      0    reboot dimension
   EREF     =   0.00    reference energy to select bands
   IMIX   =      4    mixing-type and parameters
     AMIX     =   0.40;   BMIX     =  1.00
     AMIX_MAG =   1.60;   BMIX_MAG =  1.00
     AMIN     =   0.10
     WC   =   100.;   INIMIX=   1;  MIXPRE=   1;  MAXMIX= -45

 Intra band minimization:
   WEIMIN = 0.0010     energy-eigenvalue tresh-hold
   EBREAK =  0.59E-07  absolut break condition
   DEPER  =   0.30     relativ break condition  

   TIME   =   0.40     timestep for ELM

  volume/ion in A,a.u.               =      45.87       309.57
  Fermi-wavevector in a.u.,A,eV,Ry     =   1.017073  1.921990 14.074384  1.034438
  Thomas-Fermi vector in A             =   2.150453
 
 Write flags
   LWAVE        =      F    write WAVECAR
   LDOWNSAMPLE  =      F    k-point downsampling of WAVECAR
   LCHARG       =      F    write CHGCAR
   LVTOT        =      F    write LOCPOT, total local potential
   LVHAR        =      F    write LOCPOT, Hartree potential only
   LELF         =      F    write electronic localiz. function (ELF)
   LORBIT       =      0    0 simple, 1 ext, 2 COOP (PROOUT), +10 PAW based schemes


 Dipole corrections
   LMONO  =      F    monopole corrections only (constant potential shift)
   LDIPOL =      T    correct potential (dipole corrections)
   IDIPOL =      3    1-x, 2-y, 3-z, 4-all directions 
   EPSILON=  1.0000000 bulk dielectric constant

 Exchange correlation treatment:
   GGA     =    --    GGA type
   LEXCH   =     8    internal setting for exchange type
   VOSKOWN=      0    Vosko Wilk Nusair interpolation
   LHFCALC =     F    Hartree Fock is set to
   LHFONE  =     F    Hartree Fock one center treatment
   AEXX    =    0.0000 exact exchange contribution

 Linear response parameters
   LEPSILON=     F    determine dielectric tensor
   LRPA    =     F    only Hartree local field effects (RPA)
   LNABLA  =     F    use nabla operator in PAW spheres
   LVEL    =     F    velocity operator in full k-point grid
   LINTERFAST=   F  fast interpolation
   KINTER  =     0    interpolate to denser k-point grid
   CSHIFT  =0.1000    complex shift for real part using Kramers Kronig
   OMEGAMAX=  -1.0    maximum frequency
   DEG_THRESHOLD= 0.2000000E-02 threshold for treating states as degnerate
   RTIME   =   -0.100 relaxation time in fs
  (WPLASMAI=    0.000 imaginary part of plasma frequency in eV, 0.658/RTIME)
   DFIELD  = 0.0000000 0.0000000 0.0000000 field for delta impulse in time
 
 Orbital magnetization related:
   ORBITALMAG=     F  switch on orbital magnetization
   LCHIMAG   =     F  perturbation theory with respect to B field
   DQ        =  0.001000  dq finite difference perturbation B field
   LLRAUG    =     F  two centre corrections for induced B field



--------------------------------------------------------------------------------------------------------


 quickmin algorithm: (dynamic with friction)
   using selective dynamics as specified on POSCAR
   WARNING: If single coordinates had been selected the selection of coordinates
            is made according to the corresponding   d i r e c t   coordinates!
            Don't support selection of single cartesian coordinates -- sorry ...
  !
 charge density and potential will be updated during run
 spin polarized calculation
 RMM-DIIS sequential band-by-band and
  variant of blocked Davidson during initial phase
 perform sub-space diagonalisation
    before iterative eigenvector-optimisation
 modified Broyden-mixing scheme, WC =      100.0
 initial mixing is a Kerker type mixing with AMIX =  0.4000 and BMIX =      1.0000
 Hartree-type preconditioning will be used
 using additional bands           70
 real space projection scheme for non local part
 use partial core corrections
 calculate Harris-corrections to forces 
   (improved forces if not selfconsistent)
 use gradient corrections 
 use of overlap-Matrix (Vanderbilt PP)
 Gauss-broadening in eV      SIGMA  =   0.10


--------------------------------------------------------------------------------------------------------


  energy-cutoff  :      400.00
  volume of cell :     2935.89
      direct lattice vectors                 reciprocal lattice vectors
    11.523012106  0.000000000  0.000000000     0.086782865  0.000000000  0.000000000
     0.000000000 11.523012106  0.000000000     0.000000000  0.086782865  0.000000000
     0.000000000  0.000000000 22.111000000     0.000000000  0.000000000  0.045226358

  length of vectors
    11.523012106 11.523012106 22.111000000     0.086782865  0.086782865  0.045226358


 
 k-points in units of 2pi/SCALE and weight: kpoints                                 
   0.01084786  0.01084786  0.00000000       0.250
   0.03254357  0.01084786  0.00000000       0.500
   0.03254357  0.03254357  0.00000000       0.250
 
 k-points in reciprocal lattice and weights: kpoints                                 
   0.12500000  0.12500000  0.00000000       0.250
   0.37500000  0.12500000  0.00000000       0.500
   0.37500000  0.37500000  0.00000000       0.250
 
 position of ions in fractional coordinates (direct lattice) 
   0.12500000  0.12500000  0.00000000
   0.37500000  0.12500000  0.00000000
   0.62500000  0.12500000  0.00000000
   0.87500000  0.12500000  0.00000000
   0.12500000  0.37500000  0.00000000
   0.37500000  0.37500000  0.00000000
   0.62500000  0.37500000  0.00000000
   0.87500000  0.37500000  0.00000000
   0.12500000  0.62500000  0.00000000
   0.37500000  0.62500000  0.00000000
   0.62500000  0.62500000  0.00000000
   0.87500000  0.62500000  0.00000000
   0.12500000  0.87500000  0.00000000
   0.37500000  0.87500000  0.00000000
   0.62500000  0.87500000  0.00000000
   0.87500000  0.87500000  0.00000000
   0.00000000  0.00000000  0.09212609
   0.25000000  0.00000000  0.09212609
   0.50000000  0.00000000  0.09212609
   0.75000000  0.00000000  0.09212609
   0.00000000  0.25000000  0.09212609
   0.25000000  0.25000000  0.09212609
   0.50000000  0.25000000  0.09212609
   0.75000000  0.25000000  0.09212609
   0.00000000  0.50000000  0.09212609
   0.25000000  0.50000000  0.09212609
   0.50000000  0.50000000  0.09212609
   0.75000000  0.50000000  0.09212609
   0.00000000  0.75000000  0.09212609
   0.25000000  0.75000000  0.09212609
   0.50000000  0.75000000  0.09212609
   0.75000000  0.75000000  0.09212609
   0.12500000  0.12500000  0.18425218
   0.37500000  0.12500000  0.18425218
   0.62500000  0.12500000  0.18425218
   0.87500000  0.12500000  0.18425218
   0.12500000  0.37500000  0.18425218
   0.37500000  0.37500000  0.18425218
   0.62500000  0.37500000  0.18425218
   0.87500000  0.37500000  0.18425218
   0.12500000  0.62500000  0.18425218
   0.37500000  0.62500000  0.18425218
   0.62500000  0.62500000  0.18425218
   0.87500000  0.62500000  0.18425218
   0.12500000  0.87500000  0.18425218
   0.37500000  0.87500000  0.18425218
   0.62500000  0.87500000  0.18425218
   0.87500000  0.87500000  0.18425218
   0.00000000  0.00000000  0.27637827
   0.25000000  0.00000000  0.27637827
   0.50000000  0.00000000  0.27637827
   0.75000000  0.00000000  0.27637827
   0.00000000  0.25000000  0.27637827
   0.25000000  0.25000000  0.27637827
   0.50000000  0.25000000  0.27637827
   0.75000000  0.25000000  0.27637827
   0.00000000  0.50000000  0.27637827
   0.25000000  0.50000000  0.27637827
   0.50000000  0.50000000  0.27637827
   0.75000000  0.50000000  0.27637827
   0.00000000  0.75000000  0.27637827
   0.25000000  0.75000000  0.27637827
   0.50000000  0.75000000  0.27637827
   0.75000000  0.75000000  0.27637827
 
 position of ions in cartesian coordinates  (Angst):
   1.44037651  1.44037651  0.00000000
   4.32112954  1.44037651  0.00000000
   7.20188257  1.44037651  0.00000000
  10.08263559  1.44037651  0.00000000
   1.44037651  4.32112954  0.00000000
   4.32112954  4.32112954  0.00000000
   7.20188257  4.32112954  0.00000000
  10.08263559  4.32112954  0.00000000
   1.44037651  7.20188257  0.00000000
   4.32112954  7.20188257  0.00000000
   7.20188257  7.20188257  0.00000000
  10.08263559  7.20188257  0.00000000
   1.44037651 10.08263559  0.00000000
   4.32112954 10.08263559  0.00000000
   7.20188257 10.08263559  0.00000000
  10.08263559 10.08263559  0.00000000
   0.00000000  0.00000000  2.03700000
   2.88075303  0.00000000  2.03700000
   5.76150605  0.00000000  2.03700000
   8.64225908  0.00000000  2.03700000
   0.00000000  2.88075303  2.03700000
   2.88075303  2.88075303  2.03700000
   5.76150605  2.88075303  2.03700000
   8.64225908  2.88075303  2.03700000
   0.00000000  5.76150605  2.03700000
   2.88075303  5.76150605  2.03700000
   5.76150605  5.76150605  2.03700000
   8.64225908  5.76150605  2.03700000
   0.00000000  8.64225908  2.03700000
   2.88075303  8.64225908  2.03700000
   5.76150605  8.64225908  2.03700000
   8.64225908  8.64225908  2.03700000
   1.44037651  1.44037651  4.07400000
   4.32112954  1.44037651  4.07400000
   7.20188257  1.44037651  4.07400000
  10.08263559  1.44037651  4.07400000
   1.44037651  4.32112954  4.07400000
   4.32112954  4.32112954  4.07400000
   7.20188257  4.32112954  4.07400000
  10.08263559  4.32112954  4.07400000
   1.44037651  7.20188257  4.07400000
   4.32112954  7.20188257  4.07400000
   7.20188257  7.20188257  4.07400000
  10.08263559  7.20188257  4.07400000
   1.44037651 10.08263559  4.07400000
   4.32112954 10.08263559  4.07400000
   7.20188257 10.08263559  4.07400000
  10.08263559 10.08263559  4.07400000
   0.00000000  0.00000000  6.11100000
   2.88075303  0.00000000  6.11100000
   5.76150605  0.00000000  6.11100000
   8.64225908  0.00000000  6.11100000
   0.00000000  2.88075303  6.11100000
   2.88075303  2.88075303  6.11100000
   5.76150605  2.88075303  6.11100000
   8.64225908  2.88075303  6.11100000
   0.00000000  5.76150605  6.11100000
   2.88075303  5.76150605  6.11100000
   5.76150605  5.76150605  6.11100000
   8.64225908  5.76150605  6.11100000
   0.00000000  8.64225908  6.11100000
   2.88075303  8.64225908  6.11100000
   5.76150605  8.64225908  6.11100000
   8.64225908  8.64225908  6.11100000
 


--------------------------------------------------------------------------------------------------------


 k-point  1 :   0.1250 0.1250 0.0000  plane waves:   53311
 k-point  2 :   0.3750 0.1250 0.0000  plane waves:   53345
 k-point  3 :   0.3750 0.3750 0.0000  plane waves:   53318

 maximum and minimum number of plane-waves per node :      1497     1465

 maximum number of plane-waves:     53345
 maximum index in each direction: 
   IXMAX=   18   IYMAX=   18   IZMAX=   36
   IXMIN=  -19   IYMIN=  -19   IZMIN=  -36


 real space projection operators:
  total allocation   :      43157.25 KBytes
  max/ min on nodes  :       1646.44       1050.75


 parallel 3D FFT for wavefunctions:
    minimum data exchange during FFTs selected (reduces bandwidth)
 parallel 3D FFT for charge:
    minimum data exchange during FFTs selected (reduces bandwidth)


 total amount of memory used by VASP MPI-rank0   127059. kBytes
=======================================================================

   base      :      30000. kBytes
   nonlr-proj:       7352. kBytes
   fftplans  :       8617. kBytes
   grid      :      19450. kBytes
   one-center:         62. kBytes
   wavefun   :      61578. kBytes
 
     INWAV:  cpu time    0.0000: real time    0.0000
 Broyden mixing: mesh for mixing (old mesh)
   NGX = 37   NGY = 37   NGZ = 73
  (NGX  =160   NGY  =160   NGZ  =288)
  gives a total of  99937 points

 initial charge density was supplied:
 charge density of overlapping atoms calculated
 number of electron     704.0000000 magnetization       0.0000000
 keeping initial charge density in first step


--------------------------------------------------------------------------------------------------------


 Maximum index for non-local projection operator          485
 Maximum index for augmentation-charges          716 (set IRDMAX)


--------------------------------------------------------------------------------------------------------


 First call to EWALD:  gamma=   0.124
 Maximum number of real-space cells 3x 3x 2
 Maximum number of reciprocal cells 2x 2x 4

    FEWALD:  cpu time    0.0024: real time    0.0024


--------------------------------------- Iteration      1(   1)  ---------------------------------------


    POTLOK:  cpu time    0.2462: real time    0.2490
    SETDIJ:  cpu time    0.0181: real time    0.0182
     EDDAV:  cpu time   15.6509: real time   15.6529
       DOS:  cpu time    0.0059: real time    0.0059
    --------------------------------------------
      LOOP:  cpu time   15.9211: real time   15.9259

 eigenvalue-minimisations  :  5088
 total energy-change (2. order) : 0.4017308E+04  (-0.2827247E+05)
 number of electron     704.0000000 magnetization       0.0000000
 augmentation part      704.0000000 magnetization       0.0000000

 DIPCOR: dipole corrections for dipol
 direction  3 min pos   184,
 dipolmoment           0.000000      0.000000     -0.000015 electrons x Angstroem
 Tr[quadrupol]    -16011.999106

 energy correction for charged system         0.000000 eV
 dipol+quadrupol energy correction           -0.000000 eV
 added-field ion interaction          0.000041 eV  (added to PSCEN)


 Free energy of the ion-electron system (eV)
  ---------------------------------------------------
  alpha Z        PSCENC =      1186.68027314
  Ewald energy   TEWEN  =    194846.90734617
  -Hartree energ DENC   =   -262474.21813083
  -exchange      EXHF   =         0.00000000
  -V(xc)+E(xc)   XCENC  =      -682.17915519
  PAW double counting   =     64221.57755690   -61270.35355075
  entropy T*S    EENTRO =        -0.13293813
  eigenvalues    EBANDS =      1804.48740416
  atomic energy  EATOM  =     66384.53941607
  Solvation  Ediel_sol  =         0.00000000
  ---------------------------------------------------
  free energy    TOTEN  =      4017.30822152 eV

  energy without entropy =     4017.44115965  energy(sigma->0) =     4017.37469059


--------------------------------------------------------------------------------------------------------




--------------------------------------- Iteration      1(   2)  ---------------------------------------


     EDDAV:  cpu time   18.1912: real time   18.2193
       DOS:  cpu time    0.0070: real time    0.0070
    --------------------------------------------
      LOOP:  cpu time   18.1981: real time   18.2262

 eigenvalue-minimisations  :  5494
 total energy-change (2. order) :-0.4001954E+04  (-0.3758143E+04)
 number of electron     704.0000000 magnetization       0.0000000
 augmentation part      704.0000000 magnetization       0.0000000

 DIPCOR: dipole corrections for dipol
 direction  3 min pos   184,
 dipolmoment           0.000000      0.000000     -0.000015 electrons x Angstroem
 Tr[quadrupol]    -16011.999106

 energy correction for charged system         0.000000 eV
 dipol+quadrupol energy correction           -0.000000 eV
 added-field ion interaction          0.000041 eV  (added to PSCEN)


 Free energy of the ion-electron system (eV)
  ---------------------------------------------------
  alpha Z        PSCENC =      1186.68027314
  Ewald energy   TEWEN  =    194846.90734617
  -Hartree energ DENC   =   -262474.21813083
  -exchange      EXHF   =         0.00000000
  -V(xc)+E(xc)   XCENC  =      -682.17915519
  PAW double counting   =     64221.57755690   -61270.35355075
  entropy T*S    EENTRO =        -0.08313478
  eigenvalues    EBANDS =     -2197.51660334
  atomic energy  EATOM  =     66384.53941607
  Solvation  Ediel_sol  =         0.00000000
  ---------------------------------------------------
  free energy    TOTEN  =        15.35401738 eV

  energy without entropy =       15.43715216  energy(sigma->0) =       15.39558477


--------------------------------------------------------------------------------------------------------




--------------------------------------- Iteration      1(   3)  ---------------------------------------


     EDDAV:  cpu time   16.7988: real time   16.8049
       DOS:  cpu time    0.0074: real time    0.0074
    --------------------------------------------
      LOOP:  cpu time   16.8063: real time   16.8123

 eigenvalue-minimisations  :  5496
 total energy-change (2. order) :-0.1857191E+03  (-0.1800571E+03)
 number of electron     704.0000000 magnetization       0.0000000
 augmentation part      704.0000000 magnetization       0.0000000

 DIPCOR: dipole corrections for dipol
 direction  3 min pos   184,
 dipolmoment           0.000000      0.000000     -0.000015 electrons x Angstroem
 Tr[quadrupol]    -16011.999106

 energy correction for charged system         0.000000 eV
 dipol+quadrupol energy correction           -0.000000 eV
 added-field ion interaction          0.000041 eV  (added to PSCEN)


 Free energy of the ion-electron system (eV)
  ---------------------------------------------------
  alpha Z        PSCENC =      1186.68027314
  Ewald energy   TEWEN  =    194846.90734617
  -Hartree energ DENC   =   -262474.21813083
  -exchange      EXHF   =         0.00000000
  -V(xc)+E(xc)   XCENC  =      -682.17915519
  PAW double counting   =     64221.57755690   -61270.35355075
  entropy T*S    EENTRO =        -0.06016395
  eigenvalues    EBANDS =     -2383.25865809
  atomic energy  EATOM  =     66384.53941607
  Solvation  Ediel_sol  =         0.00000000
  ---------------------------------------------------
  free energy    TOTEN  =      -170.36506654 eV

  energy without entropy =     -170.30490259  energy(sigma->0) =     -170.33498457


--------------------------------------------------------------------------------------------------------




--------------------------------------- Iteration      1(   4)  ---------------------------------------


     EDDAV:  cpu time   16.9308: real time   16.9364
       DOS:  cpu time    0.0074: real time    0.0074
    --------------------------------------------
      LOOP:  cpu time   16.9382: real time   16.9438

 eigenvalue-minimisations  :  5648
 total energy-change (2. order) :-0.3435001E+01  (-0.3421179E+01)
 number of electron     704.0000000 magnetization       0.0000000
 augmentation part      704.0000000 magnetization       0.0000000

 DIPCOR: dipole corrections for dipol
 direction  3 min pos   184,
 dipolmoment           0.000000      0.000000     -0.000015 electrons x Angstroem
 Tr[quadrupol]    -16011.999106

 energy correction for charged system         0.000000 eV
 dipol+quadrupol energy correction           -0.000000 eV
 added-field ion interaction          0.000041 eV  (added to PSCEN)


 Free energy of the ion-electron system (eV)
  ---------------------------------------------------
  alpha Z        PSCENC =      1186.68027314
  Ewald energy   TEWEN  =    194846.90734617
  -Hartree energ DENC   =   -262474.21813083
  -exchange      EXHF   =         0.00000000
  -V(xc)+E(xc)   XCENC  =      -682.17915519
  PAW double counting   =     64221.57755690   -61270.35355075
  entropy T*S    EENTRO =        -0.06068408
  eigenvalues    EBANDS =     -2386.69313897
  atomic energy  EATOM  =     66384.53941607
  Solvation  Ediel_sol  =         0.00000000
  ---------------------------------------------------
  free energy    TOTEN  =      -173.80006756 eV

  energy without entropy =     -173.73938347  energy(sigma->0) =     -173.76972551


--------------------------------------------------------------------------------------------------------




--------------------------------------- Iteration      1(   5)  ---------------------------------------


     EDDAV:  cpu time   17.4246: real time   17.4307
       DOS:  cpu time    0.0075: real time    0.0075
    CHARGE:  cpu time    0.9193: real time    0.9194
    MIXING:  cpu time    0.0084: real time    0.0084
    --------------------------------------------
      LOOP:  cpu time   18.3599: real time   18.3661

 eigenvalue-minimisations  :  5800
 total energy-change (2. order) :-0.7558425E-01  (-0.7550017E-01)
 number of electron     703.9999713 magnetization      -0.0000011
 augmentation part      326.9470305 magnetization       0.0007881

 DIPCOR: dipole corrections for dipol
 direction  3 min pos   184,
 dipolmoment           0.000000      0.000000     -0.000015 electrons x Angstroem
 Tr[quadrupol]    -16011.999106

 energy correction for charged system         0.000000 eV
 dipol+quadrupol energy correction           -0.000000 eV
 added-field ion interaction          0.000041 eV  (added to PSCEN)


 Broyden mixing:
  rms(total) = 0.36760E+01    rms(broyden)= 0.36759E+01
  rms(prec ) = 0.37934E+01
  weight for this iteration     100.00

 Free energy of the ion-electron system (eV)
  ---------------------------------------------------
  alpha Z        PSCENC =      1186.68027314
  Ewald energy   TEWEN  =    194846.90734617
  -Hartree energ DENC   =   -262474.21813083
  -exchange      EXHF   =         0.00000000
  -V(xc)+E(xc)   XCENC  =      -682.17915519
  PAW double counting   =     64221.57755690   -61270.35355075
  entropy T*S    EENTRO =        -0.06068007
  eigenvalues    EBANDS =     -2386.76872723
  atomic energy  EATOM  =     66384.53941607
  Solvation  Ediel_sol  =         0.00000000
  ---------------------------------------------------
  free energy    TOTEN  =      -173.87565180 eV

  energy without entropy =     -173.81497173  energy(sigma->0) =     -173.84531177


--------------------------------------------------------------------------------------------------------




--------------------------------------- Iteration      1(   6)  ---------------------------------------


    POTLOK:  cpu time    0.2403: real time    0.2432
    SETDIJ:  cpu time    0.0131: real time    0.0131
    EDDIAG:  cpu time    1.9335: real time    1.9336
  RMM-DIIS:  cpu time   11.2152: real time   11.2187
    ORTHCH:  cpu time    0.3716: real time    0.3716
       DOS:  cpu time    0.0077: real time    0.0077
    CHARGE:  cpu time    0.9185: real time    0.9186
    MIXING:  cpu time    0.0062: real time    0.0062
    --------------------------------------------
      LOOP:  cpu time   14.7061: real time   14.7127

 eigenvalue-minimisations  :  5078
 total energy-change (2. order) : 0.1305329E+02  (-0.4715311E+01)
 number of electron     703.9999703 magnetization      -0.0000183
 augmentation part      335.7184936 magnetization      -0.0006037

 DIPCOR: dipole corrections for dipol
 direction  3 min pos   193,
 dipolmoment           0.000000      0.000000     -0.077286 electrons x Angstroem
 Tr[quadrupol]    -16015.381120

 energy correction for charged system         0.000000 eV
 dipol+quadrupol energy correction           -0.000184 eV
 added-field ion interaction         -2.112777 eV  (added to PSCEN)


 Broyden mixing:
  rms(total) = 0.23764E+01    rms(broyden)= 0.23764E+01
  rms(prec ) = 0.23874E+01
  weight for this iteration     100.00

 eigenvalues of (default mixing * dielectric matrix)
  average eigenvalue GAMMA=   1.3636
  1.3636

 Free energy of the ion-electron system (eV)
  ---------------------------------------------------
  alpha Z        PSCENC =      1184.56727069
  Ewald energy   TEWEN  =    194846.90734617
  -Hartree energ DENC   =   -262031.85961446
  -exchange      EXHF   =         0.00000000
  -V(xc)+E(xc)   XCENC  =      -701.99542308
  PAW double counting   =     66800.17786260   -63906.96999350
  entropy T*S    EENTRO =        -0.05872618
  eigenvalues    EBANDS =     -2736.13049851
  atomic energy  EATOM  =     66384.53941607
  Solvation  Ediel_sol  =         0.00000000
  ---------------------------------------------------
  free energy    TOTEN  =      -160.82236019 eV

  energy without entropy =     -160.76363401  energy(sigma->0) =     -160.79299710


--------------------------------------------------------------------------------------------------------




--------------------------------------- Iteration      1(   7)  ---------------------------------------


    POTLOK:  cpu time    0.2425: real time    0.2460
    SETDIJ:  cpu time    0.0131: real time    0.0131
    EDDIAG:  cpu time    1.9395: real time    1.9397
  RMM-DIIS:  cpu time   11.2018: real time   11.2083
    ORTHCH:  cpu time    0.3716: real time    0.3716
       DOS:  cpu time    0.0073: real time    0.0073
    CHARGE:  cpu time    0.9157: real time    0.9157
    MIXING:  cpu time    0.0062: real time    0.0062
    --------------------------------------------
      LOOP:  cpu time   14.6977: real time   14.7078

 eigenvalue-minimisations  :  5064
 total energy-change (2. order) : 0.6233484E+00  (-0.1965688E+00)
 number of electron     703.9999702 magnetization       0.0000387
 augmentation part      336.8669953 magnetization      -0.0007775

 DIPCOR: dipole corrections for dipol
 direction  3 min pos   181,
 dipolmoment           0.000000      0.000000      0.163675 electrons x Angstroem
 Tr[quadrupol]    -16018.757970

 energy correction for charged system         0.000000 eV
 dipol+quadrupol energy correction           -0.000826 eV
 added-field ion interaction         -2.072286 eV  (added to PSCEN)


 Broyden mixing:
  rms(total) = 0.11823E+01    rms(broyden)= 0.11823E+01
  rms(prec ) = 0.11870E+01
  weight for this iteration     100.00

 eigenvalues of (default mixing * dielectric matrix)
  average eigenvalue GAMMA=   1.7944
  1.1110  2.4779

 Free energy of the ion-electron system (eV)
  ---------------------------------------------------
  alpha Z        PSCENC =      1184.60711988
  Ewald energy   TEWEN  =    194846.90734617
  -Hartree energ DENC   =   -262019.09254663
  -exchange      EXHF   =         0.00000000
  -V(xc)+E(xc)   XCENC  =      -706.47160326
  PAW double counting   =     68990.42911081   -66146.62304588
  entropy T*S    EENTRO =        -0.07583160
  eigenvalues    EBANDS =     -2694.41897732
  atomic energy  EATOM  =     66384.53941607
  Solvation  Ediel_sol  =         0.00000000
  ---------------------------------------------------
  free energy    TOTEN  =      -160.19901176 eV

  energy without entropy =     -160.12318016  energy(sigma->0) =     -160.16109596


--------------------------------------------------------------------------------------------------------




--------------------------------------- Iteration      1(   8)  ---------------------------------------


    POTLOK:  cpu time    0.2310: real time    0.2340
    SETDIJ:  cpu time    0.0134: real time    0.0134
    EDDIAG:  cpu time    1.9300: real time    1.9301
  RMM-DIIS:  cpu time   11.0920: real time   11.0934
    ORTHCH:  cpu time    0.3707: real time    0.3707
       DOS:  cpu time    0.0076: real time    0.0076
    CHARGE:  cpu time    0.9132: real time    0.9133
    MIXING:  cpu time    0.0064: real time    0.0064
    --------------------------------------------
      LOOP:  cpu time   14.5642: real time   14.5689

 eigenvalue-minimisations  :  5084
 total energy-change (2. order) :-0.4006021E+00  (-0.6117716E-01)
 number of electron     703.9999702 magnetization       0.0000289
 augmentation part      336.6922906 magnetization       0.0004968

 DIPCOR: dipole corrections for dipol
 direction  3 min pos   190,
 dipolmoment           0.000000      0.000000     -0.609085 electrons x Angstroem
 Tr[quadrupol]    -16019.710130

 energy correction for charged system         0.000000 eV
 dipol+quadrupol energy correction           -0.011439 eV
 added-field ion interaction        -10.560114 eV  (added to PSCEN)


 Broyden mixing:
  rms(total) = 0.19427E+00    rms(broyden)= 0.19426E+00
  rms(prec ) = 0.42794E+00
  weight for this iteration     100.00

 eigenvalues of (default mixing * dielectric matrix)
  average eigenvalue GAMMA=   1.3347
  2.4827  1.1112  0.4102

 Free energy of the ion-electron system (eV)
  ---------------------------------------------------
  alpha Z        PSCENC =      1176.10867863
  Ewald energy   TEWEN  =    194846.90734617
  -Hartree energ DENC   =   -262025.40142429
  -exchange      EXHF   =         0.00000000
  -V(xc)+E(xc)   XCENC  =      -707.96916546
  PAW double counting   =     70768.02770846   -67965.89243226
  entropy T*S    EENTRO =        -0.08744033
  eigenvalues    EBANDS =     -2636.83230088
  atomic energy  EATOM  =     66384.53941607
  Solvation  Ediel_sol  =         0.00000000
  ---------------------------------------------------
  free energy    TOTEN  =      -160.59961389 eV

  energy without entropy =     -160.51217356  energy(sigma->0) =     -160.55589373


--------------------------------------------------------------------------------------------------------




--------------------------------------- Iteration      1(   9)  ---------------------------------------


    POTLOK:  cpu time    0.2310: real time    0.2339
    SETDIJ:  cpu time    0.0133: real time    0.0133
    EDDIAG:  cpu time    1.9373: real time    1.9374
  RMM-DIIS:  cpu time   11.1855: real time   11.1875
    ORTHCH:  cpu time    0.3716: real time    0.3716
       DOS:  cpu time    0.0073: real time    0.0073
    CHARGE:  cpu time    0.9386: real time    0.9399
    MIXING:  cpu time    0.0067: real time    0.0067
    --------------------------------------------
      LOOP:  cpu time   14.6914: real time   14.6977

 eigenvalue-minimisations  :  5073
 total energy-change (2. order) : 0.5570560E+00  (-0.3507242E-01)
 number of electron     703.9999702 magnetization       0.0000138
 augmentation part      336.7368914 magnetization       0.0002963

 DIPCOR: dipole corrections for dipol
 direction  3 min pos   180,
 dipolmoment           0.000000      0.000000      0.102890 electrons x Angstroem
 Tr[quadrupol]    -16020.147502

 energy correction for charged system         0.000000 eV
 dipol+quadrupol energy correction           -0.000326 eV
 added-field ion interaction         -1.645642 eV  (added to PSCEN)


 Broyden mixing:
  rms(total) = 0.45829E-01    rms(broyden)= 0.45825E-01
  rms(prec ) = 0.61629E-01
  weight for this iteration     100.00

 eigenvalues of (default mixing * dielectric matrix)
  average eigenvalue GAMMA=   1.2314
  2.4856  1.1254  0.9578  0.3567

 Free energy of the ion-electron system (eV)
  ---------------------------------------------------
  alpha Z        PSCENC =      1185.03426374
  Ewald energy   TEWEN  =    194846.90734617
  -Hartree energ DENC   =   -262025.88044667
  -exchange      EXHF   =         0.00000000
  -V(xc)+E(xc)   XCENC  =      -708.02166535
  PAW double counting   =     70777.32165204   -67975.69594498
  entropy T*S    EENTRO =        -0.08121568
  eigenvalues    EBANDS =     -2644.16596325
  atomic energy  EATOM  =     66384.53941607
  Solvation  Ediel_sol  =         0.00000000
  ---------------------------------------------------
  free energy    TOTEN  =      -160.04255791 eV

  energy without entropy =     -159.96134223  energy(sigma->0) =     -160.00195007


--------------------------------------------------------------------------------------------------------




--------------------------------------- Iteration      1(  10)  ---------------------------------------


    POTLOK:  cpu time    0.2310: real time    0.2348
    SETDIJ:  cpu time    0.0129: real time    0.0129
    EDDIAG:  cpu time    1.9291: real time    1.9292
  RMM-DIIS:  cpu time   11.2771: real time   11.2783
    ORTHCH:  cpu time    0.3716: real time    0.3716
       DOS:  cpu time    0.0074: real time    0.0074
    CHARGE:  cpu time    0.9181: real time    0.9181
    MIXING:  cpu time    0.0083: real time    0.0083
    --------------------------------------------
      LOOP:  cpu time   14.7556: real time   14.7607

 eigenvalue-minimisations  :  5084
 total energy-change (2. order) : 0.6542371E-02  (-0.1050015E-02)
 number of electron     703.9999702 magnetization       0.0000122
 augmentation part      336.7508329 magnetization      -0.0000017

 DIPCOR: dipole corrections for dipol
 direction  3 min pos   176,
 dipolmoment           0.000000      0.000000      0.104211 electrons x Angstroem
 Tr[quadrupol]    -16020.441957

 energy correction for charged system         0.000000 eV
 dipol+quadrupol energy correction           -0.000335 eV
 added-field ion interaction         -3.056188 eV  (added to PSCEN)


 Broyden mixing:
  rms(total) = 0.19120E-01    rms(broyden)= 0.19118E-01
  rms(prec ) = 0.28852E-01
  weight for this iteration     100.00

 eigenvalues of (default mixing * dielectric matrix)
  average eigenvalue GAMMA=   1.2392
  2.4796  1.5621  1.0939  0.7056  0.3550

 Free energy of the ion-electron system (eV)
  ---------------------------------------------------
  alpha Z        PSCENC =      1183.62370959
  Ewald energy   TEWEN  =    194846.90734617
  -Hartree energ DENC   =   -262034.11001017
  -exchange      EXHF   =         0.00000000
  -V(xc)+E(xc)   XCENC  =      -708.03932026
  PAW double counting   =     70751.81855721   -67950.21938298
  entropy T*S    EENTRO =        -0.08100246
  eigenvalues    EBANDS =     -2634.47532871
  atomic energy  EATOM  =     66384.53941607
  Solvation  Ediel_sol  =         0.00000000
  ---------------------------------------------------
  free energy    TOTEN  =      -160.03601553 eV

  energy without entropy =     -159.95501308  energy(sigma->0) =     -159.99551431


--------------------------------------------------------------------------------------------------------




--------------------------------------- Iteration      1(  11)  ---------------------------------------


    POTLOK:  cpu time    0.2313: real time    0.2343
    SETDIJ:  cpu time    0.0130: real time    0.0130
    EDDIAG:  cpu time    1.9389: real time    1.9391
  RMM-DIIS:  cpu time   11.1936: real time   11.1957
    ORTHCH:  cpu time    0.3714: real time    0.3715
       DOS:  cpu time    0.0073: real time    0.0073
    CHARGE:  cpu time    0.9336: real time    0.9346
    MIXING:  cpu time    0.0076: real time    0.0076
    --------------------------------------------
      LOOP:  cpu time   14.6968: real time   14.7031

 eigenvalue-minimisations  :  5073
 total energy-change (2. order) :-0.4499619E-02  (-0.8322471E-03)
 number of electron     703.9999702 magnetization       0.0000109
 augmentation part      336.7535607 magnetization       0.0000118

 DIPCOR: dipole corrections for dipol
 direction  3 min pos   187,
 dipolmoment           0.000000      0.000000     -0.081199 electrons x Angstroem
 Tr[quadrupol]    -16020.707769

 energy correction for charged system         0.000000 eV
 dipol+quadrupol energy correction           -0.000203 eV
 added-field ion interaction         -0.595849 eV  (added to PSCEN)


 Broyden mixing:
  rms(total) = 0.19921E-01    rms(broyden)= 0.19921E-01
  rms(prec ) = 0.47365E-01
  weight for this iteration     100.00

 eigenvalues of (default mixing * dielectric matrix)
  average eigenvalue GAMMA=   1.2675
  2.4909  1.8637  1.0744  0.9078  0.9078  0.3602

 Free energy of the ion-electron system (eV)
  ---------------------------------------------------
  alpha Z        PSCENC =      1186.08417968
  Ewald energy   TEWEN  =    194846.90734617
  -Hartree energ DENC   =   -262043.23802957
  -exchange      EXHF   =         0.00000000
  -V(xc)+E(xc)   XCENC  =      -708.01124610
  PAW double counting   =     70715.92744647   -67914.11985250
  entropy T*S    EENTRO =        -0.08122762
  eigenvalues    EBANDS =     -2628.04854775
  atomic energy  EATOM  =     66384.53941607
  Solvation  Ediel_sol  =         0.00000000
  ---------------------------------------------------
  free energy    TOTEN  =      -160.04051515 eV

  energy without entropy =     -159.95928753  energy(sigma->0) =     -159.99990134


--------------------------------------------------------------------------------------------------------




--------------------------------------- Iteration      1(  12)  ---------------------------------------


    POTLOK:  cpu time    0.2313: real time    0.2347
    SETDIJ:  cpu time    0.0129: real time    0.0129
    EDDIAG:  cpu time    1.9291: real time    1.9292
  RMM-DIIS:  cpu time   11.0427: real time   11.0439
    ORTHCH:  cpu time    0.3714: real time    0.3714
       DOS:  cpu time    0.0073: real time    0.0073
    CHARGE:  cpu time    0.9137: real time    0.9137
    MIXING:  cpu time    0.0074: real time    0.0074
    --------------------------------------------
      LOOP:  cpu time   14.5160: real time   14.5206

 eigenvalue-minimisations  :  5079
 total energy-change (2. order) : 0.1464370E-02  (-0.1389078E-02)
 number of electron     703.9999702 magnetization       0.0000077
 augmentation part      336.7466451 magnetization       0.0000155

 DIPCOR: dipole corrections for dipol
 direction  3 min pos   180,
 dipolmoment           0.000000      0.000000      0.090275 electrons x Angstroem
 Tr[quadrupol]    -16021.028771

 energy correction for charged system         0.000000 eV
 dipol+quadrupol energy correction           -0.000251 eV
 added-field ion interaction         -1.443869 eV  (added to PSCEN)


 Broyden mixing:
  rms(total) = 0.17379E-01    rms(broyden)= 0.17379E-01
  rms(prec ) = 0.42781E-01
  weight for this iteration     100.00

 eigenvalues of (default mixing * dielectric matrix)
  average eigenvalue GAMMA=   1.3151
  2.7237  2.4846  1.1369  1.0142  0.9178  0.3693  0.5591

 Free energy of the ion-electron system (eV)
  ---------------------------------------------------
  alpha Z        PSCENC =      1185.23611191
  Ewald energy   TEWEN  =    194846.90734617
  -Hartree energ DENC   =   -262054.90624522
  -exchange      EXHF   =         0.00000000
  -V(xc)+E(xc)   XCENC  =      -707.97169311
  PAW double counting   =     70690.91487675   -67888.99844686
  entropy T*S    EENTRO =        -0.08229466
  eigenvalues    EBANDS =     -2615.67812183
  atomic energy  EATOM  =     66384.53941607
  Solvation  Ediel_sol  =         0.00000000
  ---------------------------------------------------
  free energy    TOTEN  =      -160.03905078 eV

  energy without entropy =     -159.95675613  energy(sigma->0) =     -159.99790346


--------------------------------------------------------------------------------------------------------




--------------------------------------- Iteration      1(  13)  ---------------------------------------


    POTLOK:  cpu time    0.2317: real time    0.2346
    SETDIJ:  cpu time    0.0130: real time    0.0130
    EDDIAG:  cpu time    1.9354: real time    1.9355
  RMM-DIIS:  cpu time   11.1383: real time   11.1400
    ORTHCH:  cpu time    0.3716: real time    0.3716
       DOS:  cpu time    0.0079: real time    0.0079
    CHARGE:  cpu time    0.9150: real time    0.9150
    MIXING:  cpu time    0.0080: real time    0.0080
    --------------------------------------------
      LOOP:  cpu time   14.6208: real time   14.6255

 eigenvalue-minimisations  :  5025
 total energy-change (2. order) : 0.5784902E-02  (-0.2011666E-03)
 number of electron     703.9999702 magnetization       0.0000054
 augmentation part      336.7499005 magnetization       0.0000035

 DIPCOR: dipole corrections for dipol
 direction  3 min pos   188,
 dipolmoment           0.000000      0.000000     -0.001871 electrons x Angstroem
 Tr[quadrupol]    -16021.473539

 energy correction for charged system         0.000000 eV
 dipol+quadrupol energy correction           -0.000000 eV
 added-field ion interaction         -0.019967 eV  (added to PSCEN)


 Broyden mixing:
  rms(total) = 0.54560E-02    rms(broyden)= 0.54558E-02
  rms(prec ) = 0.12231E-01
  weight for this iteration     100.00

 eigenvalues of (default mixing * dielectric matrix)
  average eigenvalue GAMMA=   1.4066
  3.0305  2.4839  1.5561  1.2338  1.0653  0.9133  0.3682  0.6014

 Free energy of the ion-electron system (eV)
  ---------------------------------------------------
  alpha Z        PSCENC =      1186.66026474
  Ewald energy   TEWEN  =    194846.90734617
  -Hartree energ DENC   =   -262068.24289572
  -exchange      EXHF   =         0.00000000
  -V(xc)+E(xc)   XCENC  =      -707.93658063
  PAW double counting   =     70658.32234683   -67856.21679918
  entropy T*S    EENTRO =        -0.08311741
  eigenvalues    EBANDS =     -2603.98324675
  atomic energy  EATOM  =     66384.53941607
  Solvation  Ediel_sol  =         0.00000000
  ---------------------------------------------------
  free energy    TOTEN  =      -160.03326588 eV

  energy without entropy =     -159.95014847  energy(sigma->0) =     -159.99170718


--------------------------------------------------------------------------------------------------------




--------------------------------------- Iteration      1(  14)  ---------------------------------------


    POTLOK:  cpu time    0.2316: real time    0.2347
    SETDIJ:  cpu time    0.0130: real time    0.0130
    EDDIAG:  cpu time    1.9546: real time    1.9560
  RMM-DIIS:  cpu time    8.7061: real time    8.7072
    ORTHCH:  cpu time    0.3710: real time    0.3711
       DOS:  cpu time    0.0079: real time    0.0079
    CHARGE:  cpu time    0.9121: real time    0.9121
    MIXING:  cpu time    0.0089: real time    0.0089
    --------------------------------------------
      LOOP:  cpu time   12.2052: real time   12.2108

 eigenvalue-minimisations  :  3903
 total energy-change (2. order) :-0.4641275E-03  (-0.5744117E-04)
 number of electron     703.9999702 magnetization       0.0000025
 augmentation part      336.7482149 magnetization       0.0000185

 DIPCOR: dipole corrections for dipol
 direction  3 min pos   192,
 dipolmoment           0.000000      0.000000     -0.018735 electrons x Angstroem
 Tr[quadrupol]    -16021.784559

 energy correction for charged system         0.000000 eV
 dipol+quadrupol energy correction           -0.000011 eV
 added-field ion interaction         -0.449716 eV  (added to PSCEN)


 Broyden mixing:
  rms(total) = 0.22207E-02    rms(broyden)= 0.22206E-02
  rms(prec ) = 0.33891E-02
  weight for this iteration     100.00

 eigenvalues of (default mixing * dielectric matrix)
  average eigenvalue GAMMA=   1.5407
  3.9060  2.5777  2.3010  1.2049  1.1220  0.8950  0.8950  0.3682  0.5967

 Free energy of the ion-electron system (eV)
  ---------------------------------------------------
  alpha Z        PSCENC =      1186.23050572
  Ewald energy   TEWEN  =    194846.90734617
  -Hartree energ DENC   =   -262077.85139417
  -exchange      EXHF   =         0.00000000
  -V(xc)+E(xc)   XCENC  =      -707.90789725
  PAW double counting   =     70655.85197681   -67853.72043972
  entropy T*S    EENTRO =        -0.08384546
  eigenvalues    EBANDS =     -2593.99939818
  atomic energy  EATOM  =     66384.53941607
  Solvation  Ediel_sol  =         0.00000000
  ---------------------------------------------------
  free energy    TOTEN  =      -160.03373001 eV

  energy without entropy =     -159.94988455  energy(sigma->0) =     -159.99180728


--------------------------------------------------------------------------------------------------------




--------------------------------------- Iteration      1(  15)  ---------------------------------------


    POTLOK:  cpu time    0.2353: real time    0.2355
    SETDIJ:  cpu time    0.0130: real time    0.0130
    EDDIAG:  cpu time    2.0538: real time    2.0604
  RMM-DIIS:  cpu time    6.9201: real time    6.9205
    ORTHCH:  cpu time    0.3713: real time    0.3714
       DOS:  cpu time    0.0073: real time    0.0073
    CHARGE:  cpu time    0.9172: real time    0.9252
    MIXING:  cpu time    0.0090: real time    0.0090
    --------------------------------------------
      LOOP:  cpu time   10.5270: real time   10.5422

 eigenvalue-minimisations  :  3037
 total energy-change (2. order) :-0.9231063E-03  (-0.1685733E-04)
 number of electron     703.9999702 magnetization       0.0000023
 augmentation part      336.7486711 magnetization      -0.0000123

 DIPCOR: dipole corrections for dipol
 direction  3 min pos   185,
 dipolmoment           0.000000      0.000000      0.008109 electrons x Angstroem
 Tr[quadrupol]    -16021.977417

 energy correction for charged system         0.000000 eV
 dipol+quadrupol energy correction           -0.000002 eV
 added-field ion interaction          0.005447 eV  (added to PSCEN)


 Broyden mixing:
  rms(total) = 0.23800E-02    rms(broyden)= 0.23800E-02
  rms(prec ) = 0.59384E-02
  weight for this iteration     100.00

 eigenvalues of (default mixing * dielectric matrix)
  average eigenvalue GAMMA=   1.5684
  4.5208  2.5025  2.5025  1.3177  0.3682  1.1057  0.9333  0.9333  0.8978  0.6020

 Free energy of the ion-electron system (eV)
  ---------------------------------------------------
  alpha Z        PSCENC =      1186.68567701
  Ewald energy   TEWEN  =    194846.90734617
  -Hartree energ DENC   =   -262083.24601891
  -exchange      EXHF   =         0.00000000
  -V(xc)+E(xc)   XCENC  =      -707.89196283
  PAW double counting   =     70658.86225598   -67856.72878906
  entropy T*S    EENTRO =        -0.08402719
  eigenvalues    EBANDS =     -2589.07855035
  atomic energy  EATOM  =     66384.53941607
  Solvation  Ediel_sol  =         0.00000000
  ---------------------------------------------------
  free energy    TOTEN  =      -160.03465312 eV

  energy without entropy =     -159.95062593  energy(sigma->0) =     -159.99263952


--------------------------------------------------------------------------------------------------------




--------------------------------------- Iteration      1(  16)  ---------------------------------------


    POTLOK:  cpu time    0.2331: real time    0.2362
    SETDIJ:  cpu time    0.0130: real time    0.0130
    EDDIAG:  cpu time    2.0798: real time    2.0800
  RMM-DIIS:  cpu time    6.6635: real time    6.6652
    ORTHCH:  cpu time    0.3702: real time    0.3702
       DOS:  cpu time    0.0079: real time    0.0079
    CHARGE:  cpu time    0.9163: real time    0.9164
    MIXING:  cpu time    0.0087: real time    0.0087
    --------------------------------------------
      LOOP:  cpu time   10.2925: real time   10.2977

 eigenvalue-minimisations  :  2899
 total energy-change (2. order) :-0.2363720E-03  (-0.5470415E-05)
 number of electron     703.9999702 magnetization       0.0000016
 augmentation part      336.7471022 magnetization       0.0000133

 DIPCOR: dipole corrections for dipol
 direction  3 min pos   183,
 dipolmoment           0.000000      0.000000      0.002118 electrons x Angstroem
 Tr[quadrupol]    -16022.063093

 energy correction for charged system         0.000000 eV
 dipol+quadrupol energy correction           -0.000000 eV
 added-field ion interaction         -0.012698 eV  (added to PSCEN)


 Broyden mixing:
  rms(total) = 0.87698E-03    rms(broyden)= 0.87697E-03
  rms(prec ) = 0.16597E-02
  weight for this iteration     100.00

 eigenvalues of (default mixing * dielectric matrix)
  average eigenvalue GAMMA=   1.6335
  4.9845  2.6076  2.6076  1.9819  1.1658  1.1337  0.9319  0.9319  0.3682  0.6055
  0.6498

 Free energy of the ion-electron system (eV)
  ---------------------------------------------------
  alpha Z        PSCENC =      1186.66753447
  Ewald energy   TEWEN  =    194846.90734617
  -Hartree energ DENC   =   -262085.01520073
  -exchange      EXHF   =         0.00000000
  -V(xc)+E(xc)   XCENC  =      -707.88772751
  PAW double counting   =     70660.62012452   -67858.52432351
  entropy T*S    EENTRO =        -0.08406597
  eigenvalues    EBANDS =     -2587.25799299
  atomic energy  EATOM  =     66384.53941607
  Solvation  Ediel_sol  =         0.00000000
  ---------------------------------------------------
  free energy    TOTEN  =      -160.03488949 eV

  energy without entropy =     -159.95082351  energy(sigma->0) =     -159.99285650


--------------------------------------------------------------------------------------------------------




--------------------------------------- Iteration      1(  17)  ---------------------------------------


    POTLOK:  cpu time    0.2326: real time    0.2355
    SETDIJ:  cpu time    0.0129: real time    0.0129
    EDDIAG:  cpu time    1.9342: real time    1.9343
  RMM-DIIS:  cpu time    6.5190: real time    6.5615
    ORTHCH:  cpu time    0.3713: real time    0.3714
       DOS:  cpu time    0.0073: real time    0.0073
    CHARGE:  cpu time    0.9095: real time    0.9095
    MIXING:  cpu time    0.0086: real time    0.0086
    --------------------------------------------
      LOOP:  cpu time    9.9954: real time   10.0411

 eigenvalue-minimisations  :  2638
 total energy-change (2. order) :-0.1747534E-03  (-0.3640588E-05)
 number of electron     703.9999702 magnetization       0.0000009
 augmentation part      336.7474210 magnetization       0.0000048

 DIPCOR: dipole corrections for dipol
 direction  3 min pos   184,
 dipolmoment           0.000000      0.000000     -0.002719 electrons x Angstroem
 Tr[quadrupol]    -16022.128083

 energy correction for charged system         0.000000 eV
 dipol+quadrupol energy correction           -0.000000 eV
 added-field ion interaction          0.007236 eV  (added to PSCEN)


 Broyden mixing:
  rms(total) = 0.77045E-03    rms(broyden)= 0.77044E-03
  rms(prec ) = 0.18689E-02
  weight for this iteration     100.00

 eigenvalues of (default mixing * dielectric matrix)
  average eigenvalue GAMMA=   1.7004
  5.8089  2.9225  2.3374  2.3374  1.3788  1.1123  1.1123  0.9021  0.9021  0.3682
  0.5957  0.6277

 Free energy of the ion-electron system (eV)
  ---------------------------------------------------
  alpha Z        PSCENC =      1186.68746779
  Ewald energy   TEWEN  =    194846.90734617
  -Hartree energ DENC   =   -262086.04038090
  -exchange      EXHF   =         0.00000000
  -V(xc)+E(xc)   XCENC  =      -707.88684091
  PAW double counting   =     70660.09149365   -67857.98973393
  entropy T*S    EENTRO =        -0.08407750
  eigenvalues    EBANDS =     -2586.25975468
  atomic energy  EATOM  =     66384.53941607
  Solvation  Ediel_sol  =         0.00000000
  ---------------------------------------------------
  free energy    TOTEN  =      -160.03506424 eV

  energy without entropy =     -159.95098674  energy(sigma->0) =     -159.99302549


--------------------------------------------------------------------------------------------------------




--------------------------------------- Iteration      1(  18)  ---------------------------------------


    POTLOK:  cpu time    0.2328: real time    0.2365
    SETDIJ:  cpu time    0.0146: real time    0.0146
    EDDIAG:  cpu time    1.9286: real time    1.9287
  RMM-DIIS:  cpu time    4.6775: real time    4.6777
    ORTHCH:  cpu time    0.3710: real time    0.3710
       DOS:  cpu time    0.0076: real time    0.0076
    --------------------------------------------
      LOOP:  cpu time    7.2321: real time    7.2361

 eigenvalue-minimisations  :   843
 total energy-change (2. order) :-0.8173693E-04  (-0.6706856E-06)
 number of electron     703.9999702 magnetization       0.0000009
 augmentation part      336.7474210 magnetization       0.0000048

 DIPCOR: dipole corrections for dipol
 direction  3 min pos   184,
 dipolmoment           0.000000      0.000000     -0.002774 electrons x Angstroem
 Tr[quadrupol]    -16022.182346

 energy correction for charged system         0.000000 eV
 dipol+quadrupol energy correction           -0.000000 eV
 added-field ion interaction          0.007383 eV  (added to PSCEN)


 Free energy of the ion-electron system (eV)
  ---------------------------------------------------
  alpha Z        PSCENC =      1186.68761486
  Ewald energy   TEWEN  =    194846.90734617
  -Hartree energ DENC   =   -262086.70702918
  -exchange      EXHF   =         0.00000000
  -V(xc)+E(xc)   XCENC  =      -707.88693692
  PAW double counting   =     70659.29444638   -67857.18348546
  entropy T*S    EENTRO =        -0.08408047
  eigenvalues    EBANDS =     -2585.60243743
  atomic energy  EATOM  =     66384.53941607
  Solvation  Ediel_sol  =         0.00000000
  ---------------------------------------------------
  free energy    TOTEN  =      -160.03514598 eV

  energy without entropy =     -159.95106551  energy(sigma->0) =     -159.99310575


--------------------------------------------------------------------------------------------------------




 average (electrostatic) potential at core
  the test charge radii are     1.1249
  (the norm of the test charge is              1.0000)
       1 -78.3978       2 -78.3978       3 -78.3978       4 -78.3978       5 -78.3978
       6 -78.3978       7 -78.3978       8 -78.3978       9 -78.3978      10 -78.3978
      11 -78.3978      12 -78.3978      13 -78.3978      14 -78.3978      15 -78.3978
      16 -78.3978      17 -78.7230      18 -78.7230      19 -78.7230      20 -78.7230
      21 -78.7230      22 -78.7230      23 -78.7230      24 -78.7230      25 -78.7230
      26 -78.7230      27 -78.7230      28 -78.7230      29 -78.7230      30 -78.7230
      31 -78.7230      32 -78.7230      33 -78.7237      34 -78.7237      35 -78.7237
      36 -78.7237      37 -78.7237      38 -78.7237      39 -78.7237      40 -78.7237
      41 -78.7237      42 -78.7237      43 -78.7237      44 -78.7237      45 -78.7237
      46 -78.7237      47 -78.7237      48 -78.7237      49 -78.4000      50 -78.4000
      51 -78.4000      52 -78.4000      53 -78.4000      54 -78.4000      55 -78.4000
      56 -78.4000      57 -78.4000      58 -78.4000      59 -78.4000      60 -78.4000
      61 -78.4000      62 -78.4000      63 -78.4000      64 -78.4000
 
 
 
 E-fermi :   0.4976     XC(G=0):  -5.3834     alpha+bet : -5.0037


 spin component 1

 k-point     1 :       0.1250    0.1250    0.0000
  band No.  band energies     occupation 
      1      -6.7599      1.00000
[...]
  0.000  -0.000  -0.000  -0.000  -0.000  -0.000   0.000   0.000   0.000   0.000  -0.000   0.000  -0.000  -0.000   0.000   0.000
 -0.000   0.000  -0.000  -0.000  -0.000  -0.000  -0.000   0.000  -0.000   0.000   0.000  -0.000   0.000   0.000  -0.000   0.000


------------------------ aborting loop because EDIFF is reached ----------------------------------------


    CHARGE:  cpu time    0.9135: real time    0.9136
    FORLOC:  cpu time    0.0355: real time    0.0356
    FORNL :  cpu time    3.7210: real time    3.7229
    STRESS:  cpu time   11.1213: real time   11.1266
    FORCOR:  cpu time    0.2713: real time    0.2747
    FORHAR:  cpu time    0.0623: real time    0.0631
    MIXING:  cpu time    0.0070: real time    0.0071
    OFIELD:  cpu time    0.0001: real time    0.0001

 ---------------------------------------------------------------------------------------------

         DFTD3 V3.0 Rev 1        
 Edisp (eV)  -22.20451

 E6    (eV) :    -8.8991
 E8    (eV) :   -13.3054
 % E8        : 59.92
    FORVDW:  cpu time    0.1495: real time    0.1511

  FORCE on cell =-STRESS in cart. coord.  units (eV):
  Direction    XX          YY          ZZ          XY          YZ          ZX
  --------------------------------------------------------------------------------------
  Alpha Z  1186.68023  1186.68023  1186.68023
  Ewald  234109.91116234109.91116************     0.00000     0.00000    -0.00000
  Hartree251927.03431251927.03431************    -0.00000    -0.00000    -0.00000
  E(xc)   -3715.13724 -3715.13724 -3724.26475    -0.00000    -0.00000     0.00000
  Local  ************************506631.63123    -0.00000    -0.00000     0.00000
  n-local  -549.70991  -568.64681  -570.80658     6.10931    -0.00000    -0.00000
  augment  5884.96250  5884.96250  5899.80834     0.00000    -0.00000     0.00000
  Kinetic  8732.47911  8726.02964  8765.59567     4.47847     0.00000     0.00000
  Fock        0.00000     0.00000     0.00000     0.00000     0.00000     0.00000
  vdW       -26.94866   -26.94866   -14.51703     0.00000     0.00000     0.00000
  -------------------------------------------------------------------------------------
  Total     -20.78614   -20.78614    -2.28610     0.00000     0.00000     0.00000
  in kB     -11.34342   -11.34342    -1.24757     0.00000     0.00000     0.00000
  external pressure =       -7.98 kB  Pullay stress =        0.00 kB


 VOLUME and BASIS-vectors are now :
 -----------------------------------------------------------------------------
  energy-cutoff  :      400.00
  volume of cell :     2935.89
      direct lattice vectors                 reciprocal lattice vectors
    11.523012106  0.000000000  0.000000000     0.086782865  0.000000000  0.000000000
     0.000000000 11.523012106  0.000000000     0.000000000  0.086782865  0.000000000
     0.000000000  0.000000000 22.111000000     0.000000000  0.000000000  0.045226358

  length of vectors
    11.523012106 11.523012106 22.111000000     0.086782865  0.086782865  0.045226358


 FORCES acting on ions
    electron-ion (+dipol)            ewald-force                    non-local-force                 convergence-correction
 -----------------------------------------------------------------------------------------------
   -.726E-13 -.288E-11 0.244E+04   -.191E-12 -.169E-13 -.244E+04   0.424E-23 0.561E-23 -.269E+01   -.324E-11 0.845E-12 0.837E-01
   -.109E-11 -.328E-11 0.244E+04   -.148E-12 0.373E-13 -.244E+04   0.282E-23 0.589E-23 -.269E+01   0.603E-11 -.124E-11 0.837E-01
   -.282E-12 0.103E-10 0.244E+04   -.173E-12 0.702E-13 -.244E+04   0.122E-22 0.848E-23 -.269E+01   0.718E-12 -.906E-12 0.837E-01
   -.537E-13 -.152E-10 0.244E+04   -.119E-12 -.462E-13 -.244E+04   -.428E-24 0.372E-23 -.269E+01   -.349E-11 0.339E-11 0.837E-01
   -.133E-13 0.288E-11 0.244E+04   -.103E-12 0.706E-13 -.244E+04   0.320E-23 0.416E-25 -.269E+01   -.451E-11 -.718E-12 0.837E-01
   -.111E-11 0.660E-11 0.244E+04   -.902E-13 -.289E-13 -.244E+04   -.559E-23 0.842E-23 -.269E+01   0.546E-11 -.384E-12 0.837E-01
   -.261E-12 -.182E-10 0.244E+04   -.608E-13 -.551E-13 -.244E+04   0.308E-23 0.888E-24 -.269E+01   0.358E-11 0.133E-11 0.837E-01
   -.730E-13 0.485E-11 0.244E+04   -.346E-13 0.711E-13 -.244E+04   0.321E-23 0.334E-23 -.269E+01   -.451E-11 -.157E-11 0.837E-01
   -.194E-13 -.320E-11 0.244E+04   -.105E-12 0.151E-13 -.244E+04   0.240E-23 0.270E-23 -.269E+01   -.252E-11 -.126E-12 0.837E-01
   -.113E-11 -.324E-11 0.244E+04   -.906E-13 -.169E-13 -.244E+04   0.940E-24 -.121E-23 -.269E+01   0.751E-11 0.790E-12 0.837E-01
   -.319E-12 -.331E-11 0.244E+04   -.586E-13 0.888E-15 -.244E+04   -.446E-23 0.472E-23 -.269E+01   -.745E-12 0.883E-12 0.837E-01
   -.125E-13 -.144E-11 0.244E+04   -.364E-13 0.426E-13 -.244E+04   0.667E-24 0.499E-23 -.269E+01   -.421E-11 -.343E-11 0.837E-01
   -.297E-13 0.278E-12 0.244E+04   0.151E-13 0.115E-12 -.244E+04   -.110E-23 0.647E-23 -.269E+01   -.233E-11 0.272E-12 0.837E-01
   -.113E-11 0.358E-11 0.244E+04   0.364E-13 0.595E-13 -.244E+04   -.124E-22 -.441E-23 -.269E+01   0.693E-11 0.288E-12 0.837E-01
   -.237E-12 0.148E-10 0.244E+04   0.542E-13 0.391E-13 -.244E+04   0.422E-23 0.521E-23 -.269E+01   0.121E-11 -.676E-12 0.837E-01
   -.913E-13 -.849E-11 0.244E+04   0.497E-13 0.382E-13 -.244E+04   0.690E-23 0.965E-24 -.269E+01   -.581E-11 0.152E-11 0.837E-01
   -.273E-12 -.261E-12 0.830E+03   -.249E-13 0.107E-13 -.830E+03   -.548E-24 -.408E-23 -.528E+00   0.173E-11 0.445E-13 0.186E+00
   -.336E-12 -.229E-12 0.830E+03   -.112E-13 -.114E-12 -.830E+03   -.681E-23 0.994E-23 -.528E+00   0.181E-11 -.147E-12 0.186E+00
   -.195E-12 -.245E-12 0.830E+03   0.249E-13 0.320E-13 -.830E+03   -.442E-23 0.128E-22 -.528E+00   0.971E-12 -.114E-11 0.186E+00
   -.178E-11 -.271E-12 0.830E+03   0.143E-13 0.533E-13 -.830E+03   -.134E-22 -.355E-23 -.528E+00   -.441E-11 -.317E-11 0.186E+00
   -.207E-12 0.171E-12 0.830E+03   0.568E-13 0.419E-13 -.830E+03   0.306E-23 0.525E-23 -.528E+00   -.140E-11 0.863E-12 0.186E+00
   -.318E-12 0.327E-13 0.830E+03   0.884E-13 -.683E-13 -.830E+03   -.112E-22 0.153E-22 -.528E+00   0.133E-11 -.488E-12 0.186E+00
   -.302E-12 -.260E-12 0.830E+03   0.103E-12 0.113E-12 -.830E+03   0.111E-22 0.178E-22 -.528E+00   -.188E-11 -.203E-12 0.186E+00
   -.175E-11 0.610E-12 0.830E+03   0.939E-13 0.525E-13 -.830E+03   0.631E-23 -.112E-23 -.528E+00   0.202E-11 0.274E-11 0.186E+00
   -.204E-12 -.451E-12 0.830E+03   0.213E-13 0.426E-13 -.830E+03   0.228E-22 0.918E-23 -.528E+00   -.918E-12 -.156E-11 0.186E+00
   -.303E-12 -.142E-11 0.830E+03   0.813E-13 0.320E-13 -.830E+03   0.499E-23 -.139E-22 -.528E+00   0.183E-11 0.122E-11 0.186E+00
   -.294E-12 -.381E-11 0.830E+03   0.959E-13 0.426E-13 -.830E+03   0.392E-23 -.190E-22 -.528E+00   0.826E-12 0.227E-11 0.186E+00
   -.178E-11 -.195E-11 0.830E+03   0.850E-13 -.888E-13 -.830E+03   -.330E-24 0.232E-23 -.528E+00   -.165E-11 -.850E-12 0.186E+00
   -.251E-12 -.331E-12 0.830E+03   0.131E-12 0.393E-13 -.830E+03   0.326E-23 -.964E-24 -.528E+00   0.290E-11 0.906E-12 0.186E+00
   -.260E-12 0.708E-11 0.830E+03   0.209E-12 0.287E-13 -.830E+03   -.158E-22 -.649E-23 -.528E+00   0.207E-11 -.155E-12 0.186E+00
   -.240E-12 0.610E-11 0.830E+03   0.153E-12 0.464E-13 -.830E+03   -.118E-24 -.199E-22 -.528E+00   0.224E-11 -.504E-12 0.186E+00
   -.183E-11 0.619E-11 0.830E+03   0.170E-12 0.962E-13 -.830E+03   -.102E-22 -.141E-22 -.528E+00   -.713E-11 0.172E-11 0.186E+00
   -.295E-13 0.313E-11 -.832E+03   -.101E-12 -.995E-13 0.831E+03   0.378E-23 0.218E-24 0.526E+00   0.820E-12 -.494E-13 0.229E+00
   -.113E-11 0.824E-12 -.832E+03   -.112E-12 -.515E-13 0.831E+03   0.272E-22 -.150E-24 0.526E+00   -.275E-12 -.553E-12 0.229E+00
   -.275E-12 0.303E-11 -.832E+03   -.128E-12 -.284E-13 0.831E+03   -.267E-22 -.158E-22 0.526E+00   -.282E-11 -.203E-11 0.229E+00
   -.873E-13 0.880E-11 -.832E+03   -.320E-13 0.284E-13 0.831E+03   -.339E-23 -.185E-22 0.526E+00   0.234E-11 -.438E-12 0.229E+00
   -.466E-14 0.605E-11 -.832E+03   -.284E-13 -.817E-13 0.831E+03   0.321E-23 -.958E-23 0.526E+00   0.310E-12 0.882E-12 0.229E+00
   -.114E-11 0.594E-11 -.832E+03   -.888E-14 -.101E-12 0.831E+03   -.179E-22 -.945E-23 0.526E+00   -.100E-11 0.196E-11 0.229E+00
   -.271E-12 0.607E-11 -.832E+03   -.284E-13 0.142E-13 0.831E+03   -.109E-22 -.174E-22 0.526E+00   -.137E-11 0.175E-11 0.229E+00
   -.113E-12 0.228E-11 -.832E+03   0.426E-13 -.924E-13 0.831E+03   -.960E-23 -.188E-22 0.526E+00   0.216E-11 0.391E-11 0.229E+00
   0.226E-15 0.268E-11 -.832E+03   -.284E-13 -.782E-13 0.831E+03   -.940E-23 -.101E-22 0.526E+00   0.755E-12 -.114E-11 0.229E+00
   -.111E-11 0.226E-11 -.832E+03   -.213E-13 -.320E-13 0.831E+03   -.188E-22 -.564E-23 0.526E+00   -.197E-11 -.922E-12 0.229E+00
   -.274E-12 0.199E-11 -.832E+03   -.284E-13 -.284E-13 0.831E+03   -.296E-22 -.435E-24 0.526E+00   0.441E-12 -.150E-11 0.229E+00
   -.139E-12 -.301E-12 -.832E+03   0.568E-13 -.128E-12 0.831E+03   -.768E-23 -.255E-23 0.526E+00   0.861E-12 -.294E-11 0.229E+00
   -.135E-13 0.351E-11 -.832E+03   0.853E-13 -.462E-13 0.831E+03   0.144E-22 0.166E-23 0.526E+00   0.110E-11 -.246E-12 0.229E+00
   -.111E-11 -.728E-13 -.832E+03   0.782E-13 0.711E-14 0.831E+03   0.159E-22 0.232E-22 0.526E+00   -.963E-12 -.100E-11 0.229E+00
   -.294E-12 0.421E-11 -.832E+03   0.853E-13 -.568E-13 0.831E+03   0.119E-23 0.169E-22 0.526E+00   -.915E-12 -.340E-13 0.229E+00
   -.105E-12 0.638E-11 -.832E+03   0.128E-12 0.568E-13 0.831E+03   -.402E-23 -.867E-23 0.526E+00   0.860E-12 -.742E-12 0.229E+00
   -.337E-12 0.878E-12 -.244E+04   -.156E-12 -.213E-13 0.244E+04   -.648E-23 0.864E-23 0.269E+01   -.144E-11 0.633E-13 0.500E-01
   -.275E-12 0.788E-12 -.244E+04   -.104E-12 -.142E-13 0.244E+04   0.112E-22 -.362E-23 0.269E+01   -.126E-11 -.245E-12 0.500E-01
   -.191E-12 0.864E-12 -.244E+04   -.995E-13 -.355E-13 0.244E+04   -.144E-22 0.698E-23 0.269E+01   0.129E-11 -.900E-12 0.500E-01
   -.173E-11 0.886E-12 -.244E+04   -.710E-13 -.284E-13 0.244E+04   0.657E-23 -.296E-23 0.269E+01   0.138E-11 0.593E-11 0.500E-01
   -.272E-12 0.770E-12 -.244E+04   -.249E-13 0.515E-13 0.244E+04   0.158E-22 -.617E-23 0.269E+01   -.220E-12 0.391E-12 0.500E-01
   -.245E-12 0.617E-15 -.244E+04   -.687E-15 -.231E-13 0.244E+04   0.185E-22 -.203E-22 0.269E+01   -.138E-11 0.718E-12 0.500E-01
   -.242E-12 0.228E-11 -.244E+04   0.355E-14 0.515E-13 0.244E+04   0.149E-22 0.346E-23 0.269E+01   0.247E-11 0.134E-11 0.500E-01
   -.178E-11 -.557E-11 -.244E+04   0.322E-13 0.302E-13 0.244E+04   -.525E-23 -.466E-22 0.269E+01   -.899E-12 -.350E-11 0.500E-01
   -.250E-12 0.908E-12 -.244E+04   -.568E-13 -.711E-14 0.244E+04   -.659E-23 0.184E-22 0.269E+01   -.215E-11 0.178E-11 0.500E-01
   -.244E-12 -.412E-12 -.244E+04   -.204E-14 -.249E-13 0.244E+04   -.273E-22 -.118E-22 0.269E+01   -.766E-12 -.521E-12 0.500E-01
   -.277E-12 -.459E-12 -.244E+04   0.000E+00 0.497E-13 0.244E+04   -.117E-22 -.209E-23 0.269E+01   -.178E-12 -.245E-11 0.500E-01
   -.178E-11 -.238E-11 -.244E+04   0.286E-13 -.284E-13 0.244E+04   0.209E-22 -.406E-22 0.269E+01   0.306E-11 0.265E-11 0.500E-01
   -.299E-12 0.813E-12 -.244E+04   0.568E-13 0.781E-13 0.244E+04   -.149E-22 -.115E-22 0.269E+01   -.275E-11 -.218E-11 0.500E-01
   -.205E-12 0.875E-11 -.244E+04   0.116E-12 0.675E-13 0.244E+04   -.198E-23 -.218E-22 0.269E+01   -.119E-11 -.112E-12 0.500E-01
   -.204E-12 0.437E-11 -.244E+04   0.114E-12 -.712E-14 0.244E+04   -.123E-22 -.276E-22 0.269E+01   -.257E-11 0.160E-11 0.500E-01
   -.184E-11 0.351E-11 -.244E+04   0.114E-12 0.853E-13 0.244E+04   -.141E-22 -.126E-22 0.269E+01   0.649E-11 -.276E-11 0.500E-01
 -----------------------------------------------------------------------------------------------
   -.325E-10 0.678E-10 -.885E+01   0.147E-12 0.262E-12 -.109E-10   -.872E-22 -.200E-21 0.739E-01   0.650E-12 0.505E-12 0.879E+01
 
 
 POSITION                                       TOTAL-FORCE (eV/Angst)
 -----------------------------------------------------------------------------------
      1.44038      1.44038      0.00000         0.000000      0.000000     -0.030258
      4.32113      1.44038      0.00000         0.000000     -0.000000     -0.030258
      7.20188      1.44038      0.00000        -0.000000     -0.000000     -0.030258
     10.08264      1.44038      0.00000         0.000000     -0.000000     -0.030258
      1.44038      4.32113      0.00000         0.000000      0.000000     -0.030258
      4.32113      4.32113      0.00000         0.000000      0.000000     -0.030258
      7.20188      4.32113      0.00000         0.000000     -0.000000     -0.030258
     10.08264      4.32113      0.00000         0.000000     -0.000000     -0.030258
      1.44038      7.20188      0.00000        -0.000000     -0.000000     -0.030258
      4.32113      7.20188      0.00000         0.000000      0.000000     -0.030258
      7.20188      7.20188      0.00000         0.000000      0.000000     -0.030258
     10.08264      7.20188      0.00000        -0.000000      0.000000     -0.030258
      1.44038     10.08264      0.00000         0.000000     -0.000000     -0.030258
      4.32113     10.08264      0.00000         0.000000     -0.000000     -0.030258
      7.20188     10.08264      0.00000         0.000000     -0.000000     -0.030258
     10.08264     10.08264      0.00000        -0.000000     -0.000000     -0.030258
      0.00000      0.00000      2.03700         0.000000      0.000000      0.035253
      2.88075      0.00000      2.03700         0.000000      0.000000      0.035253
      5.76151      0.00000      2.03700         0.000000      0.000000      0.035253
      8.64226      0.00000      2.03700         0.000000      0.000000      0.035253
      0.00000      2.88075      2.03700         0.000000     -0.000000      0.035253
      2.88075      2.88075      2.03700        -0.000000     -0.000000      0.035253
      5.76151      2.88075      2.03700        -0.000000     -0.000000      0.035253
      8.64226      2.88075      2.03700         0.000000     -0.000000      0.035253
      0.00000      5.76151      2.03700         0.000000      0.000000      0.035253
      2.88075      5.76151      2.03700         0.000000     -0.000000      0.035253
      5.76151      5.76151      2.03700         0.000000     -0.000000      0.035253
      8.64226      5.76151      2.03700         0.000000     -0.000000      0.035253
      0.00000      8.64226      2.03700         0.000000      0.000000      0.035253
      2.88075      8.64226      2.03700         0.000000      0.000000      0.035253
      5.76151      8.64226      2.03700         0.000000      0.000000      0.035253
      8.64226      8.64226      2.03700         0.000000      0.000000      0.035253
      1.44038      1.44038      4.09634        -0.000000     -0.000000     -0.015217
      4.32113      1.44038      4.09634        -0.000000     -0.000000     -0.015217
      7.20188      1.44038      4.09634        -0.000000      0.000000     -0.015217
     10.08264      1.44038      4.09634         0.000000     -0.000000     -0.015217
      1.44038      4.32113      4.09634        -0.000000     -0.000000     -0.015217
      4.32113      4.32113      4.09634        -0.000000     -0.000000     -0.015217
      7.20188      4.32113      4.09634         0.000000      0.000000     -0.015217
     10.08264      4.32113      4.09634        -0.000000     -0.000000     -0.015217
      1.44038      7.20188      4.09634         0.000000      0.000000     -0.015217
      4.32113      7.20188      4.09634         0.000000      0.000000     -0.015217
      7.20188      7.20188      4.09634         0.000000      0.000000     -0.015217
     10.08264      7.20188      4.09634        -0.000000      0.000000     -0.015217
      1.44038     10.08264      4.09634        -0.000000     -0.000000     -0.015217
      4.32113     10.08264      4.09634        -0.000000     -0.000000     -0.015217
      7.20188     10.08264      4.09634        -0.000000      0.000000     -0.015217
     10.08264     10.08264      4.09634        -0.000000      0.000000     -0.015217
     -0.00000      0.00000      6.14234        -0.000000     -0.000000      0.010222
      2.88075      0.00000      6.14234        -0.000000     -0.000000      0.010222
      5.76151      0.00000      6.14234        -0.000000     -0.000000      0.010222
      8.64226      0.00000      6.14234        -0.000000     -0.000000      0.010222
     -0.00000      2.88075      6.14234        -0.000000      0.000000      0.010222
      2.88075      2.88075      6.14234         0.000000     -0.000000      0.010222
      5.76151      2.88075      6.14234        -0.000000     -0.000000      0.010222
      8.64226      2.88075      6.14234        -0.000000     -0.000000      0.010222
     -0.00000      5.76151      6.14234         0.000000      0.000000      0.010222
      2.88075      5.76151      6.14234         0.000000      0.000000      0.010222
      5.76151      5.76151      6.14234         0.000000     -0.000000      0.010222
      8.64226      5.76151      6.14234         0.000000     -0.000000      0.010222
     -0.00000      8.64226      6.14234         0.000000      0.000000      0.010222
      2.88075      8.64226      6.14234         0.000000      0.000000      0.010222
      5.76151      8.64226      6.14234         0.000000      0.000000      0.010222
      8.64226      8.64226      6.14234        -0.000000      0.000000      0.010222
 -----------------------------------------------------------------------------------
    total drift:                               -0.000000      0.000000      0.015659


--------------------------------------------------------------------------------------------------------



  FREE ENERGIE OF THE ION-ELECTRON SYSTEM (eV)
  ---------------------------------------------------
  free  energy   TOTEN  =      -182.34914857 eV

  energy  without entropy=     -182.25788597  energy(sigma->0) =     -182.30351727
 
 d Force = 0.3395735E-03[-0.136E-02, 0.204E-02]  d Energy = 0.8770167E-03-0.537E-03
 d Force =-0.9549896E+02[-0.955E+02,-0.955E+02]  d Ewald  =-0.9549903E+02 0.716E-04


--------------------------------------------------------------------------------------------------------


    POTLOK:  cpu time    0.2716: real time    0.2755


--------------------------------------------------------------------------------------------------------


 stress matrix after NEB project (eV)
    -20.78614      0.00000      0.00000
      0.00000    -20.78614     -0.00000
      0.00000      0.00000     -2.28610
  FORCES: max atom, RMS     0.015217    0.009166
  FORCE total and by dimension    0.073326    0.015217
  Stress total and by dimension   29.484801   20.786140
 OPT: skip step - force has converged


--------------------------------------------------------------------------------------------------------


  
 reached required accuracy - stopping structural energy minimisation
     LOOP+:  cpu time   59.5295: real time   59.5899
    4ORBIT:  cpu time    0.0000: real time    0.0000

 total amount of memory used by VASP MPI-rank0   127059. kBytes
=======================================================================

   base      :      30000. kBytes
   nonlr-proj:       7352. kBytes
   fftplans  :       8617. kBytes
   grid      :      19450. kBytes
   one-center:         62. kBytes
   wavefun   :      61578. kBytes
 
  
  
 General timing and accounting informations for this job:
 ========================================================
  
                  Total CPU time used (sec):      587.006
                            User time (sec):      585.837
                          System time (sec):        1.168
                         Elapsed time (sec):      588.293
  
                   Maximum memory used (kb):      472624.
                   Average memory used (kb):           0.
  
                          Minor page faults:       124860
                          Major page faults:           10
                 Voluntary context switches:         2528
