<?xml version="1.0" encoding="ISO-8859-1"?>
<modeling>
 <generator>
  <i name="program" type="string">vasp </i>
  <i name="version" type="string">5.4.4.18Apr17-6-g9f103f2a35  </i>
  <i name="subversion" type="string">(build Sep 18 2020 13:42:41) complex            parallel </i>
  <i name="platform" type="string">Eagle </i>
  <i name="date" type="string">2022 05 31 </i>
  <i name="time" type="string">15:20:48 </i>
 </generator>
 <incar>
  <i type="string" name="SYSTEM"> CatImpurities</i>
  <i type="string" name="PREC">accurate</i>
  <i type="string" name="ALGO"> Fast</i>
  <i type="int" name="ISPIN">     2</i>
  <i type="int" name="NELM">  1000</i>
  <i type="int" name="NELMDL">    -5</i>
  <i type="int" name="IBRION">     3</i>
  <i name="EDIFFG">     -0.02000000</i>
  <i type="int" name="NSW">   500</i>
  <i type="int" name="ISYM">     2</i>
  <i name="ENCUT">    400.00000000</i>
  <i name="POTIM">      0.00000000</i>
  <v name="MAGMOM">      0.00000000      0.00000000      0.00000000      0.00000000      0.00000000      0.00000000      0.00000000      0.00000000      0.00000000      0.00000000      0.00000000      0.00000000      0.00000000      0.00000000      0.00000000      0.00000000      0.00000000      0.00000000      0.00000000      0.00000000
      0.00000000      0.00000000      0.00000000      0.00000000      0.00000000      0.00000000      0.00000000      0.00000000      0.00000000      0.00000000      0.00000000      0.00000000      0.00000000      0.00000000      0.00000000      0.00000000      0.00000000      0.00000000      0.00000000      0.00000000
      0.00000000      0.00000000      0.00000000      0.00000000      0.00000000      0.00000000      0.00000000      0.00000000      0.00000000      0.00000000      0.00000000      0.00000000      0.00000000      0.00000000      0.00000000      0.00000000      0.00000000      0.00000000      0.00000000      0.00000000
      0.00000000      0.00000000      0.00000000      0.00000000</v>
  <i type="string" name="LREAL"> Auto</i>
  <i type="int" name="ISMEAR">     0</i>
  <i name="SIGMA">      0.10000000</i>
  <i type="logical" name="LWAVE"> F  </i>
  <i type="logical" name="LCHARG"> F  </i>
  <v type="int" name="KPOINT_BSE">    -1     0     0     0</v>
  <i type="int" name="NELM">  1000</i>
  <i type="logical" name="LDIPOL"> T  </i>
  <i type="int" name="IDIPOL">     3</i>
 </incar>
 <structure name="primitive_cell" >
  <crystal>
   <varray name="basis" >
    <v>       2.88075303       0.00000000       0.00000000 </v>
    <v>       0.00000000       2.88075303       0.00000000 </v>
    <v>       0.00000000       0.00000000      22.11100000 </v>
   </varray>
   <i name="volume">    183.49339592 </i>
   <varray name="rec_basis" >
    <v>       0.34713146       0.00000000       0.00000000 </v>
    <v>       0.00000000       0.34713146       0.00000000 </v>
    <v>       0.00000000       0.00000000       0.04522636 </v>
   </varray>
  </crystal>
  <varray name="positions" >
   <v>      -0.50000000      -0.50000000       0.00000000 </v>
   <v>       0.00000000       0.00000000       0.09212609 </v>
   <v>      -0.50000000      -0.50000000       0.18425218 </v>
   <v>       0.00000000       0.00000000       0.27637827 </v>
  </varray>
 </structure>
 <varray name="primitive_index" >
  <v type="int" >        1 </v>
  <v type="int" >       17 </v>
  <v type="int" >       33 </v>
  <v type="int" >       49 </v>
 </varray>
 <kpoints>
  <generation param="Monkhorst-Pack">
   <v type="int" name="divisions">       4        4        1 </v>
   <v name="usershift">      0.00000000       0.00000000       0.00000000 </v>
   <v name="genvec1">      0.25000000       0.00000000       0.00000000 </v>
   <v name="genvec2">      0.00000000       0.25000000       0.00000000 </v>
   <v name="genvec3">      0.00000000       0.00000000       1.00000000 </v>
   <v name="shift">      0.50000000       0.50000000       0.00000000 </v>
  </generation>
  <varray name="kpointlist" >
   <v>       0.12500000       0.12500000       0.00000000 </v>
   <v>       0.37500000       0.12500000       0.00000000 </v>
   <v>       0.37500000       0.37500000       0.00000000 </v>
  </varray>
  <varray name="weights" >
   <v>       0.25000000 </v>
   <v>       0.50000000 </v>
   <v>       0.25000000 </v>
  </varray>
 </kpoints>
 <parameters>
  <separator name="general" >
   <i type="string" name="SYSTEM">CatImpurities</i>
   <i type="logical" name="LCOMPAT"> F  </i>
  </separator>
  <separator name="electronic" >
   <i type="string" name="PREC">accura</i>
   <i name="ENMAX">    400.00000000</i>
   <i name="ENAUG">    412.49600000</i>
   <i name="EDIFF">      0.00010000</i>
   <i type="int" name="IALGO">    68</i>
   <i type="int" name="IWAVPR">    11</i>
   <i type="int" name="NBANDS">   422</i>
   <i name="NELECT">    704.00000000</i>
   <i type="int" name="TURBO">     0</i>
   <i type="int" name="IRESTART">     0</i>
   <i type="int" name="NREBOOT">     0</i>
   <i type="int" name="NMIN">     0</i>
   <i name="EREF">      0.00000000</i>
   <separator name="electronic smearing" >
    <i type="int" name="ISMEAR">     0</i>
    <i name="SIGMA">      0.10000000</i>
    <i name="KSPACING">      0.50000000</i>
    <i type="logical" name="KGAMMA"> T  </i>
   </separator>
   <separator name="electronic projectors" >
    <i type="logical" name="LREAL"> T  </i>
    <v name="ROPT">     -0.00025000</v>
    <i type="int" name="LMAXPAW">  -100</i>
    <i type="int" name="LMAXMIX">     2</i>
    <i type="logical" name="NLSPLINE"> F  </i>
   </separator>
   <separator name="electronic startup" >
    <i type="int" name="ISTART">     0</i>
    <i type="int" name="ICHARG">     2</i>
    <i type="int" name="INIWAV">     1</i>
   </separator>
   <separator name="electronic spin" >
    <i type="int" name="ISPIN">     2</i>
    <i type="logical" name="LNONCOLLINEAR"> F  </i>
    <v name="MAGMOM">      0.00000000      0.00000000      0.00000000      0.00000000      0.00000000      0.00000000      0.00000000      0.00000000      0.00000000      0.00000000      0.00000000      0.00000000      0.00000000      0.00000000      0.00000000      0.00000000      0.00000000      0.00000000      0.00000000      0.00000000
      0.00000000      0.00000000      0.00000000      0.00000000      0.00000000      0.00000000      0.00000000      0.00000000      0.00000000      0.00000000      0.00000000      0.00000000      0.00000000      0.00000000      0.00000000      0.00000000      0.00000000      0.00000000      0.00000000      0.00000000
      0.00000000      0.00000000      0.00000000      0.00000000      0.00000000      0.00000000      0.00000000      0.00000000      0.00000000      0.00000000      0.00000000      0.00000000      0.00000000      0.00000000      0.00000000      0.00000000      0.00000000      0.00000000      0.00000000      0.00000000
      0.00000000      0.00000000      0.00000000      0.00000000</v>
    <i name="NUPDOWN">     -1.00000000</i>
    <i type="logical" name="LSORBIT"> F  </i>
    <v name="SAXIS">      0.00000000      0.00000000      1.00000000</v>
    <i type="logical" name="LSPIRAL"> F  </i>
    <v name="QSPIRAL">      0.00000000      0.00000000      0.00000000</v>
    <i type="logical" name="LZEROZ"> F  </i>
   </separator>
   <separator name="electronic exchange-correlation" >
    <i type="logical" name="LASPH"> F  </i>
    <i type="logical" name="LMETAGGA"> F  </i>
   </separator>
   <separator name="electronic convergence" >
    <i type="int" name="NELM">  1000</i>
    <i type="int" name="NELMDL">    -5</i>
    <i type="int" name="NELMIN">     2</i>
    <i name="ENINI">    400.00000000</i>
    <separator name="electronic convergence detail" >
     <i type="logical" name="LDIAG"> T  </i>
     <i type="logical" name="LSUBROT"> F  </i>
     <i name="WEIMIN">      0.00100000</i>
     <i name="EBREAK">      0.00000006</i>
     <i name="DEPER">      0.30000000</i>
     <i type="int" name="NRMM">     4</i>
     <i name="TIME">      0.40000000</i>
    </separator>
   </separator>
   <separator name="electronic mixer" >
    <i name="AMIX">      0.40000000</i>
    <i name="BMIX">      1.00000000</i>
    <i name="AMIN">      0.10000000</i>
    <i name="AMIX_MAG">      1.60000000</i>
    <i name="BMIX_MAG">      1.00000000</i>
    <separator name="electronic mixer details" >
     <i type="int" name="IMIX">     4</i>
     <i type="logical" name="MIXFIRST"> F  </i>
     <i type="int" name="MAXMIX">   -45</i>
     <i name="WC">    100.00000000</i>
     <i type="int" name="INIMIX">     1</i>
     <i type="int" name="MIXPRE">     1</i>
     <i type="int" name="MREMOVE">     5</i>
    </separator>
   </separator>
   <separator name="electronic dipolcorrection" >
    <i type="logical" name="LDIPOL"> T  </i>
    <i type="logical" name="LMONO"> F  </i>
    <i type="int" name="IDIPOL">     3</i>
    <i name="EPSILON">      1.00000000</i>
    <v name="DIPOL">   -100.00000000   -100.00000000   -100.00000000</v>
    <i name="EFIELD">      0.00000000</i>
   </separator>
  </separator>
  <separator name="grids" >
   <i type="int" name="NGX">    80</i>
   <i type="int" name="NGY">    80</i>
   <i type="int" name="NGZ">   144</i>
   <i type="int" name="NGXF">   160</i>
   <i type="int" name="NGYF">   160</i>
   <i type="int" name="NGZF">   288</i>
   <i type="logical" name="ADDGRID"> F  </i>
  </separator>
  <separator name="ionic" >
   <i type="int" name="NSW">   500</i>
   <i type="int" name="IBRION">     3</i>
   <i type="int" name="MDALGO">     0</i>
   <i type="int" name="ISIF">     2</i>
   <i name="PSTRESS">      0.00000000</i>
   <i name="EDIFFG">     -0.02000000</i>
   <i type="int" name="NFREE">     0</i>
   <i name="POTIM">      0.00000000</i>
   <i name="SMASS">     -3.00000000</i>
   <i name="SCALEE">      1.00000000</i>
  </separator>
  <separator name="ionic md" >
   <i name="TEBEG">      0.00010000</i>
   <i name="TEEND">      0.00010000</i>
   <i type="int" name="NBLOCK">     1</i>
   <i type="int" name="KBLOCK">   500</i>
   <i type="int" name="NPACO">   256</i>
   <i name="APACO">     16.00000000</i>
  </separator>
  <separator name="symmetry" >
   <i type="int" name="ISYM">     2</i>
   <i name="SYMPREC">      0.00001000</i>
  </separator>
  <separator name="dos" >
   <i type="int" name="LORBIT">     0</i>
   <v name="RWIGS">     -1.00000000</v>
   <i type="int" name="NEDOS">   301</i>
   <i name="EMIN">     10.00000000</i>
   <i name="EMAX">    -10.00000000</i>
   <i name="EFERMI">      0.00000000</i>
  </separator>
  <separator name="writing" >
   <i type="int" name="NWRITE">     2</i>
   <i type="logical" name="LWAVE"> F  </i>
   <i type="logical" name="LDOWNSAMPLE"> F  </i>
   <i type="logical" name="LCHARG"> F  </i>
   <i type="logical" name="LPARD"> F  </i>
   <i type="logical" name="LVTOT"> F  </i>
   <i type="logical" name="LVHAR"> F  </i>
   <i type="logical" name="LELF"> F  </i>
   <i type="logical" name="LOPTICS"> F  </i>
   <v name="STM">      0.00000000      0.00000000      0.00000000      0.00000000      0.00000000      0.00000000      0.00000000</v>
  </separator>
  <separator name="performance" >
   <i type="int" name="NPAR">     1</i>
   <i type="int" name="NSIM">     4</i>
   <i type="int" name="NBLK">    -1</i>
   <i type="logical" name="LPLANE"> T  </i>
   <i type="logical" name="LSCALAPACK"> T  </i>
   <i type="logical" name="LSCAAWARE"> F  </i>
   <i type="logical" name="LSCALU"> F  </i>
   <i type="logical" name="LASYNC"> F  </i>
   <i type="logical" name="LORBITALREAL"> F  </i>
  </separator>
  <separator name="miscellaneous" >
   <i type="int" name="IDIOT">     3</i>
   <i type="int" name="ISPECIAL">     0</i>
   <i type="logical" name="LMUSIC"> F  </i>
   <v name="POMASS">    107.86800000</v>
   <v name="DARWINR">      0.00000000</v>
   <v name="DARWINV">      1.00000000</v>
   <i type="logical" name="LCORR"> T  </i>
  </separator>
  <i type="logical" name="GGA_COMPAT"> T  </i>
  <i type="logical" name="LBERRY"> F  </i>
  <i type="int" name="ICORELEVEL">     0</i>
  <i type="logical" name="LDAU"> F  </i>
  <i type="int" name="I_CONSTRAINED_M">     0</i>
  <separator name="electronic exchange-correlation" >
   <i type="string" name="GGA">--</i>
   <i type="int" name="VOSKOWN">     0</i>
   <i type="logical" name="LHFCALC"> F  </i>
   <i type="string" name="PRECFOCK"></i>
   <i type="logical" name="LSYMGRAD"> F  </i>
   <i type="logical" name="LHFONE"> F  </i>
   <i type="logical" name="LRHFCALC"> F  </i>
   <i type="logical" name="LTHOMAS"> F  </i>
   <i type="logical" name="LMODELHF"> F  </i>
   <i name="ENCUT4O">     -1.00000000</i>
   <i type="int" name="EXXOEP">     0</i>
   <i type="int" name="FOURORBIT">     0</i>
   <i name="AEXX">      0.00000000</i>
   <i name="HFALPHA">      0.00000000</i>
   <i name="MCALPHA">      0.00000000</i>
   <i name="ALDAX">      1.00000000</i>
   <i name="AGGAX">      1.00000000</i>
   <i name="ALDAC">      1.00000000</i>
   <i name="AGGAC">      1.00000000</i>
   <i type="int" name="NKREDX">     1</i>
   <i type="int" name="NKREDY">     1</i>
   <i type="int" name="NKREDZ">     1</i>
   <i type="logical" name="SHIFTRED"> F  </i>
   <i type="logical" name="ODDONLY"> F  </i>
   <i type="logical" name="EVENONLY"> F  </i>
   <i type="int" name="LMAXFOCK">     0</i>
   <i type="int" name="NMAXFOCKAE">     0</i>
   <i type="logical" name="LFOCKAEDFT"> F  </i>
   <i name="HFSCREEN">      0.00000000</i>
   <i name="HFSCREENC">      0.00000000</i>
   <i type="int" name="NBANDSGWLOW">     0</i>
  </separator>
  <separator name="vdW DFT" >
   <i type="logical" name="LUSE_VDW"> F  </i>
   <i name="Zab_VDW">     -0.84910000</i>
   <i name="PARAM1">      0.12340000</i>
   <i name="PARAM2">      1.00000000</i>
   <i name="PARAM3">      0.00000000</i>
  </separator>
  <separator name="model GW" >
   <i type="int" name="MODEL_GW">     0</i>
   <i name="MODEL_EPS0">     27.52400939</i>
   <i name="MODEL_ALPHA">      1.00000000</i>
  </separator>
  <separator name="linear response parameters" >
   <i type="logical" name="LEPSILON"> F  </i>
   <i type="logical" name="LRPA"> F  </i>
   <i type="logical" name="LNABLA"> F  </i>
   <i type="logical" name="LVEL"> F  </i>
   <i type="int" name="KINTER">     0</i>
   <i name="CSHIFT">      0.10000000</i>
   <i name="OMEGAMAX">     -1.00000000</i>
   <i name="DEG_THRESHOLD">      0.00200000</i>
   <i name="RTIME">     -0.10000000</i>
   <i name="WPLASMAI">      0.00000000</i>
   <v name="DFIELD">      0.00000000      0.00000000      0.00000000</v>
   <v name="WPLASMA">      0.00000000      0.00000000      0.00000000      0.00000000      0.00000000      0.00000000      0.00000000      0.00000000      0.00000000</v>
  </separator>
  <separator name="orbital magnetization" >
   <i type="logical" name="NUCIND"> F  </i>
   <v name="MAGPOS">      0.00000000      0.00000000      0.00000000</v>
   <i type="logical" name="LNICSALL"> T  </i>
   <i type="logical" name="ORBITALMAG"> F  </i>
   <i type="logical" name="LMAGBLOCH"> F  </i>
   <i type="logical" name="LCHIMAG"> F  </i>
   <i type="logical" name="LGAUGE"> T  </i>
   <i type="int" name="MAGATOM">     0</i>
   <v name="MAGDIPOL">      0.00000000      0.00000000      0.00000000</v>
   <v name="AVECCONST">      0.00000000      0.00000000      0.00000000</v>
  </separator>
  <separator name="response functions" >
   <i type="logical" name="LADDER"> F  </i>
   <i type="logical" name="LRPAFORCE"> F  </i>
   <i type="logical" name="LFXC"> F  </i>
   <i type="logical" name="LHARTREE"> T  </i>
   <i type="int" name="IBSE">     0</i>
   <v type="int" name="KPOINT">    -1     0     0     0</v>
   <i type="logical" name="LTCTE"> F  </i>
   <i type="logical" name="LTETE"> F  </i>
   <i type="logical" name="LTRIPLET"> F  </i>
   <i type="logical" name="LFXCEPS"> F  </i>
   <i type="logical" name="LFXHEG"> F  </i>
   <i type="int" name="NATURALO">     2</i>
   <i type="logical" name="L2ORDER"> F  </i>
   <i type="logical" name="LMP2LT"> F  </i>
   <i type="logical" name="LUSEW"> F  </i>
   <i name="ENCUTGW">     -2.00000000</i>
   <i name="ENCUTGWSOFT">     -2.00000000</i>
   <i name="ENCUTLF">     -1.00000000</i>
   <i type="int" name="LMAXMP2">    -1</i>
   <i name="SCISSOR">      0.00000000</i>
   <i type="int" name="NOMEGA">     0</i>
   <i type="int" name="NOMEGAR">     0</i>
   <i type="int" name="NBANDSGW">    -1</i>
   <i type="int" name="NBANDSO">    -1</i>
   <i type="int" name="NBANDSV">    -1</i>
   <i type="int" name="NELM">  1000</i>
   <i type="int" name="NELMHF">     1</i>
   <i type="int" name="DIM">     3</i>
   <i type="int" name="ANTIRES">     0</i>
   <i name="OMEGAMAX">    -30.00000000</i>
   <i name="OMEGAMIN">    -30.00000000</i>
   <i name="OMEGATL">   -200.00000000</i>
   <i type="int" name="OMEGAGRID">   140</i>
   <i name="CSHIFT">     -0.10000000</i>
   <i type="logical" name="SELFENERGY"> F  </i>
   <i type="logical" name="LSPECTRAL"> F  </i>
   <i type="logical" name="LSPECTRALGW"> F  </i>
   <i type="logical" name="LSINGLES"> F  </i>
   <i type="logical" name="LFERMIGW"> F  </i>
   <i type="logical" name="ODDONLYGW"> F  </i>
   <i type="logical" name="EVENONLYGW"> F  </i>
   <i type="int" name="NKREDLFX">     1</i>
   <i type="int" name="NKREDLFY">     1</i>
   <i type="int" name="NKREDLFZ">     1</i>
   <i type="int" name="MAXMEM">  2800</i>
   <i type="int" name="TELESCOPE">     0</i>
   <i type="int" name="TAUPAR">     1</i>
   <i type="int" name="OMEGAPAR">    -1</i>
   <i name="LAMBDA">      1.00000000</i>
  </separator>
  <separator name="External order field" >
   <i name="OFIELD_KAPPA">      0.00000000</i>
   <v name="OFIELD_K">      0.00000000      0.00000000      0.00000000</v>
   <i name="OFIELD_Q6_NEAR">      0.00000000</i>
   <i name="OFIELD_Q6_FAR">      0.00000000</i>
   <i name="OFIELD_A">      0.00000000</i>
  </separator>
  <separator name="solvation model" >
   <i type="logical" name="LSOL"> F  </i>
  </separator>
 </parameters>
 <atominfo>
  <atoms>      64 </atoms>
  <types>       1 </types>
  <array name="atoms" >
   <dimension dim="1">ion</dimension>
   <field type="string">element</field>
   <field type="int">atomtype</field>
   <set>
    <rc><c>Ag</c><c>   1</c></rc>
    <rc><c>Ag</c><c>   1</c></rc>
    <rc><c>Ag</c><c>   1</c></rc>
    <rc><c>Ag</c><c>   1</c></rc>
    <rc><c>Ag</c><c>   1</c></rc>
    <rc><c>Ag</c><c>   1</c></rc>
    <rc><c>Ag</c><c>   1</c></rc>
    <rc><c>Ag</c><c>   1</c></rc>
    <rc><c>Ag</c><c>   1</c></rc>
    <rc><c>Ag</c><c>   1</c></rc>
    <rc><c>Ag</c><c>   1</c></rc>
    <rc><c>Ag</c><c>   1</c></rc>
    <rc><c>Ag</c><c>   1</c></rc>
    <rc><c>Ag</c><c>   1</c></rc>
    <rc><c>Ag</c><c>   1</c></rc>
    <rc><c>Ag</c><c>   1</c></rc>
    <rc><c>Ag</c><c>   1</c></rc>
    <rc><c>Ag</c><c>   1</c></rc>
    <rc><c>Ag</c><c>   1</c></rc>
    <rc><c>Ag</c><c>   1</c></rc>
    <rc><c>Ag</c><c>   1</c></rc>
    <rc><c>Ag</c><c>   1</c></rc>
    <rc><c>Ag</c><c>   1</c></rc>
    <rc><c>Ag</c><c>   1</c></rc>
    <rc><c>Ag</c><c>   1</c></rc>
    <rc><c>Ag</c><c>   1</c></rc>
    <rc><c>Ag</c><c>   1</c></rc>
    <rc><c>Ag</c><c>   1</c></rc>
    <rc><c>Ag</c><c>   1</c></rc>
    <rc><c>Ag</c><c>   1</c></rc>
    <rc><c>Ag</c><c>   1</c></rc>
    <rc><c>Ag</c><c>   1</c></rc>
    <rc><c>Ag</c><c>   1</c></rc>
    <rc><c>Ag</c><c>   1</c></rc>
    <rc><c>Ag</c><c>   1</c></rc>
    <rc><c>Ag</c><c>   1</c></rc>
    <rc><c>Ag</c><c>   1</c></rc>
    <rc><c>Ag</c><c>   1</c></rc>
    <rc><c>Ag</c><c>   1</c></rc>
    <rc><c>Ag</c><c>   1</c></rc>
    <rc><c>Ag</c><c>   1</c></rc>
    <rc><c>Ag</c><c>   1</c></rc>
    <rc><c>Ag</c><c>   1</c></rc>
    <rc><c>Ag</c><c>   1</c></rc>
    <rc><c>Ag</c><c>   1</c></rc>
    <rc><c>Ag</c><c>   1</c></rc>
    <rc><c>Ag</c><c>   1</c></rc>
    <rc><c>Ag</c><c>   1</c></rc>
    <rc><c>Ag</c><c>   1</c></rc>
    <rc><c>Ag</c><c>   1</c></rc>
    <rc><c>Ag</c><c>   1</c></rc>
    <rc><c>Ag</c><c>   1</c></rc>
    <rc><c>Ag</c><c>   1</c></rc>
    <rc><c>Ag</c><c>   1</c></rc>
    <rc><c>Ag</c><c>   1</c></rc>
    <rc><c>Ag</c><c>   1</c></rc>
    <rc><c>Ag</c><c>   1</c></rc>
    <rc><c>Ag</c><c>   1</c></rc>
    <rc><c>Ag</c><c>   1</c></rc>
    <rc><c>Ag</c><c>   1</c></rc>
    <rc><c>Ag</c><c>   1</c></rc>
    <rc><c>Ag</c><c>   1</c></rc>
    <rc><c>Ag</c><c>   1</c></rc>
    <rc><c>Ag</c><c>   1</c></rc>
   </set>
  </array>
  <array name="atomtypes" >
   <dimension dim="1">type</dimension>
   <field type="int">atomspertype</field>
   <field type="string">element</field>
   <field>mass</field>
   <field>valence</field>
   <field type="string">pseudopotential</field>
   <set>
    <rc><c>  64</c><c>Ag</c><c>    107.86800000</c><c>     11.00000000</c><c>  PAW_PBE Ag 02Apr2005                  </c></rc>
   </set>
  </array>
 </atominfo>
 <structure name="initialpos" >
  <crystal>
   <varray name="basis" >
    <v>      11.52301211       0.00000000       0.00000000 </v>
    <v>       0.00000000      11.52301211       0.00000000 </v>
    <v>       0.00000000       0.00000000      22.11100000 </v>
   </varray>
   <i name="volume">   2935.89433469 </i>
   <varray name="rec_basis" >
    <v>       0.08678286       0.00000000       0.00000000 </v>
    <v>       0.00000000       0.08678286       0.00000000 </v>
    <v>       0.00000000       0.00000000       0.04522636 </v>
   </varray>
  </crystal>
  <varray name="positions" >
   <v>       0.12500000       0.12500000       0.00000000 </v>
   <v>       0.37500000       0.12500000       0.00000000 </v>
   <v>       0.62500000       0.12500000       0.00000000 </v>
   <v>       0.87500000       0.12500000       0.00000000 </v>
   <v>       0.12500000       0.37500000       0.00000000 </v>
   <v>       0.37500000       0.37500000       0.00000000 </v>
   <v>       0.62500000       0.37500000       0.00000000 </v>
   <v>       0.87500000       0.37500000       0.00000000 </v>
   <v>       0.12500000       0.62500000       0.00000000 </v>
   <v>       0.37500000       0.62500000       0.00000000 </v>
   <v>       0.62500000       0.62500000       0.00000000 </v>
   <v>       0.87500000       0.62500000       0.00000000 </v>
   <v>       0.12500000       0.87500000       0.00000000 </v>
   <v>       0.37500000       0.87500000       0.00000000 </v>
   <v>       0.62500000       0.87500000       0.00000000 </v>
   <v>       0.87500000       0.87500000       0.00000000 </v>
   <v>       0.00000000       0.00000000       0.09212609 </v>
   <v>       0.25000000       0.00000000       0.09212609 </v>
   <v>       0.50000000       0.00000000       0.09212609 </v>
   <v>       0.75000000       0.00000000       0.09212609 </v>
   <v>       0.00000000       0.25000000       0.09212609 </v>
   <v>       0.25000000       0.25000000       0.09212609 </v>
   <v>       0.50000000       0.25000000       0.09212609 </v>
   <v>       0.75000000       0.25000000       0.09212609 </v>
   <v>       0.00000000       0.50000000       0.09212609 </v>
   <v>       0.25000000       0.50000000       0.09212609 </v>
   <v>       0.50000000       0.50000000       0.09212609 </v>
   <v>       0.75000000       0.50000000       0.09212609 </v>
   <v>       0.00000000       0.75000000       0.09212609 </v>
   <v>       0.25000000       0.75000000       0.09212609 </v>
   <v>       0.50000000       0.75000000       0.09212609 </v>
   <v>       0.75000000       0.75000000       0.09212609 </v>
   <v>       0.12500000       0.12500000       0.18425218 </v>
   <v>       0.37500000       0.12500000       0.18425218 </v>
   <v>       0.62500000       0.12500000       0.18425218 </v>
   <v>       0.87500000       0.12500000       0.18425218 </v>
   <v>       0.12500000       0.37500000       0.18425218 </v>
   <v>       0.37500000       0.37500000       0.18425218 </v>
   <v>       0.62500000       0.37500000       0.18425218 </v>
   <v>       0.87500000       0.37500000       0.18425218 </v>
   <v>       0.12500000       0.62500000       0.18425218 </v>
   <v>       0.37500000       0.62500000       0.18425218 </v>
   <v>       0.62500000       0.62500000       0.18425218 </v>
   <v>       0.87500000       0.62500000       0.18425218 </v>
   <v>       0.12500000       0.87500000       0.18425218 </v>
   <v>       0.37500000       0.87500000       0.18425218 </v>
   <v>       0.62500000       0.87500000       0.18425218 </v>
   <v>       0.87500000       0.87500000       0.18425218 </v>
   <v>       0.00000000       0.00000000       0.27637827 </v>
   <v>       0.25000000       0.00000000       0.27637827 </v>
   <v>       0.50000000       0.00000000       0.27637827 </v>
   <v>       0.75000000       0.00000000       0.27637827 </v>
   <v>       0.00000000       0.25000000       0.27637827 </v>
   <v>       0.25000000       0.25000000       0.27637827 </v>
   <v>       0.50000000       0.25000000       0.27637827 </v>
   <v>       0.75000000       0.25000000       0.27637827 </v>
   <v>       0.00000000       0.50000000       0.27637827 </v>
   <v>       0.25000000       0.50000000       0.27637827 </v>
   <v>       0.50000000       0.50000000       0.27637827 </v>
   <v>       0.75000000       0.50000000       0.27637827 </v>
   <v>       0.00000000       0.75000000       0.27637827 </v>
   <v>       0.25000000       0.75000000       0.27637827 </v>
   <v>       0.50000000       0.75000000       0.27637827 </v>
   <v>       0.75000000       0.75000000       0.27637827 </v>
  </varray>
  <varray name="selective"  type="logical" >
   <v type="logical" >  F  F  F </v>
   <v type="logical" >  F  F  F </v>
   <v type="logical" >  F  F  F </v>
   <v type="logical" >  F  F  F </v>
   <v type="logical" >  F  F  F </v>
   <v type="logical" >  F  F  F </v>
   <v type="logical" >  F  F  F </v>
   <v type="logical" >  F  F  F </v>
   <v type="logical" >  F  F  F </v>
   <v type="logical" >  F  F  F </v>
   <v type="logical" >  F  F  F </v>
   <v type="logical" >  F  F  F </v>
   <v type="logical" >  F  F  F </v>
   <v type="logical" >  F  F  F </v>
   <v type="logical" >  F  F  F </v>
   <v type="logical" >  F  F  F </v>
   <v type="logical" >  F  F  F </v>
   <v type="logical" >  F  F  F </v>
   <v type="logical" >  F  F  F </v>
   <v type="logical" >  F  F  F </v>
   <v type="logical" >  F  F  F </v>
   <v type="logical" >  F  F  F </v>
   <v type="logical" >  F  F  F </v>
   <v type="logical" >  F  F  F </v>
   <v type="logical" >  F  F  F </v>
   <v type="logical" >  F  F  F </v>
   <v type="logical" >  F  F  F </v>
   <v type="logical" >  F  F  F </v>
   <v type="logical" >  F  F  F </v>
   <v type="logical" >  F  F  F </v>
   <v type="logical" >  F  F  F </v>
   <v type="logical" >  F  F  F </v>
   <v type="logical" >  T  T  T </v>
   <v type="logical" >  T  T  T </v>
   <v type="logical" >  T  T  T </v>
   <v type="logical" >  T  T  T </v>
   <v type="logical" >  T  T  T </v>
   <v type="logical" >  T  T  T </v>
   <v type="logical" >  T  T  T </v>
   <v type="logical" >  T  T  T </v>
   <v type="logical" >  T  T  T </v>
   <v type="logical" >  T  T  T </v>
   <v type="logical" >  T  T  T </v>
   <v type="logical" >  T  T  T </v>
   <v type="logical" >  T  T  T </v>
   <v type="logical" >  T  T  T </v>
   <v type="logical" >  T  T  T </v>
   <v type="logical" >  T  T  T </v>
   <v type="logical" >  T  T  T </v>
   <v type="logical" >  T  T  T </v>
   <v type="logical" >  T  T  T </v>
   <v type="logical" >  T  T  T </v>
   <v type="logical" >  T  T  T </v>
   <v type="logical" >  T  T  T </v>
   <v type="logical" >  T  T  T </v>
   <v type="logical" >  T  T  T </v>
   <v type="logical" >  T  T  T </v>
   <v type="logical" >  T  T  T </v>
   <v type="logical" >  T  T  T </v>
   <v type="logical" >  T  T  T </v>
   <v type="logical" >  T  T  T </v>
   <v type="logical" >  T  T  T </v>
   <v type="logical" >  T  T  T </v>
   <v type="logical" >  T  T  T </v>
  </varray>
  <nose>
   <v>      -3.00000000       0.00000000       0.00010000       0.00010000 </v>
  </nose>
 </structure>
 <calculation>
  <scstep>
   <time name="dav">   15.65   15.65</time>
   <time name="total">   15.92   15.93</time>
   <dipole>
    <v name="dipole">      0.00000000       0.00000000      -0.00001540 </v>
    <i name="Tr[quadrupol]"> -16011.99910626 </i>
    <i name="Echarged">      0.00000000 </i>
    <i name="Edipol_quadrupol">      0.00000000 </i>
    <i name="Eion">      0.00000000 </i>
   </dipole>
   <energy>
    <i name="alphaZ">   1186.68027314 </i>
    <i name="ewald"> 194846.90734617 </i>
    <i name="hartreedc">-262474.21813083 </i>
    <i name="XCdc">   -682.17915519 </i>
    <i name="pawpsdc">  64221.57755690 </i>
    <i name="pawaedc"> -61270.35355075 </i>
    <i name="eentropy">     -0.13293813 </i>
    <i name="bandstr">   1804.48740416 </i>
    <i name="atom">  66384.53941607 </i>
    <i name="e_fr_energy">   4017.30822152 </i>
    <i name="e_wo_entrp">   4017.44115965 </i>
    <i name="e_0_energy">   4017.37469059 </i>
   </energy>
  </scstep>
  <scstep>
   <time name="dav">   18.19   18.22</time>
   <time name="total">   18.20   18.23</time>
   <dipole>
    <v name="dipole">      0.00000000       0.00000000      -0.00001540 </v>
    <i name="Tr[quadrupol]"> -16011.99910626 </i>
    <i name="Echarged">      0.00000000 </i>
    <i name="Edipol_quadrupol">      0.00000000 </i>
    <i name="Eion">      0.00000000 </i>
   </dipole>
   <energy>
    <i name="e_fr_energy">     15.35401738 </i>
    <i name="e_wo_entrp">     15.43715216 </i>
    <i name="e_0_energy">     15.39558477 </i>
   </energy>
  </scstep>
  <scstep>
   <time name="dav">   16.80   16.80</time>
   <time name="total">   16.81   16.81</time>
   <dipole>
    <v name="dipole">      0.00000000       0.00000000      -0.00001540 </v>
    <i name="Tr[quadrupol]"> -16011.99910626 </i>
    <i name="Echarged">      0.00000000 </i>
    <i name="Edipol_quadrupol">      0.00000000 </i>
    <i name="Eion">      0.00000000 </i>
   </dipole>
   <energy>
    <i name="e_fr_energy">   -170.36506654 </i>
    <i name="e_wo_entrp">   -170.30490259 </i>
    <i name="e_0_energy">   -170.33498457 </i>
   </energy>
  </scstep>
  <scstep>
   <time name="dav">   16.93   16.94</time>
   <time name="total">   16.94   16.94</time>
   <dipole>
    <v name="dipole">      0.00000000       0.00000000      -0.00001540 </v>
    <i name="Tr[quadrupol]"> -16011.99910626 </i>
    <i name="Echarged">      0.00000000 </i>
    <i name="Edipol_quadrupol">      0.00000000 </i>
    <i name="Eion">      0.00000000 </i>
   </dipole>
   <energy>
    <i name="e_fr_energy">   -173.80006756 </i>
    <i name="e_wo_entrp">   -173.73938347 </i>
    <i name="e_0_energy">   -173.76972551 </i>
   </energy>
  </scstep>
  <scstep>
   <time name="dav">   17.42   17.43</time>
   <time name="total">   18.36   18.37</time>
   <dipole>
    <v name="dipole">      0.00000000       0.00000000      -0.00001540 </v>
    <i name="Tr[quadrupol]"> -16011.99910626 </i>
    <i name="Echarged">      0.00000000 </i>
    <i name="Edipol_quadrupol">      0.00000000 </i>
    <i name="Eion">      0.00000000 </i>
   </dipole>
   <energy>
    <i name="e_fr_energy">   -173.87565180 </i>
    <i name="e_wo_entrp">   -173.81497173 </i>
    <i name="e_0_energy">   -173.84531177 </i>
   </energy>
  </scstep>
  <scstep>
   <time name="diag">    1.93    1.93</time>
   <time name="diis">   11.22   11.22</time>
   <time name="orth">    0.37    0.37</time>
   <time name="total">   14.71   14.71</time>
   <dipole>
    <v name="dipole">      0.00000000       0.00000000      -0.07728572 </v>
    <i name="Tr[quadrupol]"> -16015.38112033 </i>
    <i name="Echarged">      0.00000000 </i>
    <i name="Edipol_quadrupol">      0.00000000 </i>
    <i name="Eion">      0.00000000 </i>
   </dipole>
   <energy>
    <i name="e_fr_energy">   -160.82236019 </i>
    <i name="e_wo_entrp">   -160.76363401 </i>
    <i name="e_0_energy">   -160.79299710 </i>
   </energy>
  </scstep>
  <scstep>
   <time name="diag">    1.94    1.94</time>
   <time name="diis">   11.20   11.21</time>
   <time name="orth">    0.37    0.37</time>
   <time name="total">   14.70   14.71</time>
   <dipole>
    <v name="dipole">      0.00000000       0.00000000       0.16367458 </v>
    <i name="Tr[quadrupol]"> -16018.75797029 </i>
    <i name="Echarged">      0.00000000 </i>
    <i name="Edipol_quadrupol">      0.00000000 </i>
    <i name="Eion">      0.00000000 </i>
   </dipole>
   <energy>
    <i name="e_fr_energy">   -160.19901176 </i>
    <i name="e_wo_entrp">   -160.12318016 </i>
    <i name="e_0_energy">   -160.16109596 </i>
   </energy>
  </scstep>
  <scstep>
   <time name="diag">    1.93    1.93</time>
   <time name="diis">   11.09   11.09</time>
   <time name="orth">    0.37    0.37</time>
   <time name="total">   14.56   14.57</time>
   <dipole>
    <v name="dipole">      0.00000000       0.00000000      -0.60908511 </v>
    <i name="Tr[quadrupol]"> -16019.71012977 </i>
    <i name="Echarged">      0.00000000 </i>
    <i name="Edipol_quadrupol">      0.00000000 </i>
    <i name="Eion">      0.00000000 </i>
   </dipole>
   <energy>
    <i name="e_fr_energy">   -160.59961389 </i>
    <i name="e_wo_entrp">   -160.51217356 </i>
    <i name="e_0_energy">   -160.55589373 </i>
   </energy>
  </scstep>
  <scstep>
   <time name="diag">    1.94    1.94</time>
   <time name="diis">   11.19   11.19</time>
   <time name="orth">    0.37    0.37</time>
   <time name="total">   14.69   14.70</time>
   <dipole>
    <v name="dipole">      0.00000000       0.00000000       0.10288991 </v>
    <i name="Tr[quadrupol]"> -16020.14750156 </i>
    <i name="Echarged">      0.00000000 </i>
    <i name="Edipol_quadrupol">      0.00000000 </i>
    <i name="Eion">      0.00000000 </i>
   </dipole>
   <energy>
    <i name="e_fr_energy">   -160.04255791 </i>
    <i name="e_wo_entrp">   -159.96134223 </i>
    <i name="e_0_energy">   -160.00195007 </i>
   </energy>
  </scstep>
  <scstep>
   <time name="diag">    1.93    1.93</time>
   <time name="diis">   11.28   11.28</time>
   <time name="orth">    0.37    0.37</time>
   <time name="total">   14.76   14.76</time>
   <dipole>
    <v name="dipole">      0.00000000       0.00000000       0.10421090 </v>
    <i name="Tr[quadrupol]"> -16020.44195686 </i>
    <i name="Echarged">      0.00000000 </i>
    <i name="Edipol_quadrupol">      0.00000000 </i>
    <i name="Eion">      0.00000000 </i>
   </dipole>
   <energy>
    <i name="e_fr_energy">   -160.03601553 </i>
    <i name="e_wo_entrp">   -159.95501308 </i>
    <i name="e_0_energy">   -159.99551431 </i>
   </energy>
  </scstep>
  <scstep>
   <time name="diag">    1.94    1.94</time>
   <time name="diis">   11.19   11.20</time>
   <time name="orth">    0.37    0.37</time>
   <time name="total">   14.70   14.70</time>
   <dipole>
    <v name="dipole">      0.00000000       0.00000000      -0.08119931 </v>
    <i name="Tr[quadrupol]"> -16020.70776920 </i>
    <i name="Echarged">      0.00000000 </i>
    <i name="Edipol_quadrupol">      0.00000000 </i>
    <i name="Eion">      0.00000000 </i>
   </dipole>
   <energy>
    <i name="e_fr_energy">   -160.04051515 </i>
    <i name="e_wo_entrp">   -159.95928753 </i>
    <i name="e_0_energy">   -159.99990134 </i>
   </energy>
  </scstep>
  <scstep>
   <time name="diag">    1.93    1.93</time>
   <time name="diis">   11.04   11.04</time>
   <time name="orth">    0.37    0.37</time>
   <time name="total">   14.52   14.52</time>
   <dipole>
    <v name="dipole">      0.00000000       0.00000000       0.09027453 </v>
    <i name="Tr[quadrupol]"> -16021.02877142 </i>
    <i name="Echarged">      0.00000000 </i>
    <i name="Edipol_quadrupol">      0.00000000 </i>
    <i name="Eion">      0.00000000 </i>
   </dipole>
   <energy>
    <i name="e_fr_energy">   -160.03905078 </i>
    <i name="e_wo_entrp">   -159.95675613 </i>
    <i name="e_0_energy">   -159.99790346 </i>
   </energy>
  </scstep>
  <scstep>
   <time name="diag">    1.94    1.94</time>
   <time name="diis">   11.14   11.14</time>
   <time name="orth">    0.37    0.37</time>
   <time name="total">   14.62   14.63</time>
   <dipole>
    <v name="dipole">      0.00000000       0.00000000      -0.00187112 </v>
    <i name="Tr[quadrupol]"> -16021.47353935 </i>
    <i name="Echarged">      0.00000000 </i>
    <i name="Edipol_quadrupol">      0.00000000 </i>
    <i name="Eion">      0.00000000 </i>
   </dipole>
   <energy>
    <i name="e_fr_energy">   -160.03326588 </i>
    <i name="e_wo_entrp">   -159.95014847 </i>
    <i name="e_0_energy">   -159.99170718 </i>
   </energy>
  </scstep>
  <scstep>
   <time name="diag">    1.95    1.96</time>
   <time name="diis">    8.71    8.71</time>
   <time name="orth">    0.37    0.37</time>
   <time name="total">   12.21   12.21</time>
   <dipole>
    <v name="dipole">      0.00000000       0.00000000      -0.01873500 </v>
    <i name="Tr[quadrupol]"> -16021.78455885 </i>
    <i name="Echarged">      0.00000000 </i>
    <i name="Edipol_quadrupol">      0.00000000 </i>
    <i name="Eion">      0.00000000 </i>
   </dipole>
   <energy>
    <i name="e_fr_energy">   -160.03373001 </i>
    <i name="e_wo_entrp">   -159.94988455 </i>
    <i name="e_0_energy">   -159.99180728 </i>
   </energy>
  </scstep>
  <scstep>
   <time name="diag">    2.05    2.06</time>
   <time name="diis">    6.92    6.92</time>
   <time name="orth">    0.37    0.37</time>
   <time name="total">   10.53   10.54</time>
   <dipole>
    <v name="dipole">      0.00000000       0.00000000       0.00810873 </v>
    <i name="Tr[quadrupol]"> -16021.97741744 </i>
    <i name="Echarged">      0.00000000 </i>
    <i name="Edipol_quadrupol">      0.00000000 </i>
    <i name="Eion">      0.00000000 </i>
   </dipole>
   <energy>
    <i name="e_fr_energy">   -160.03465312 </i>
    <i name="e_wo_entrp">   -159.95062593 </i>
    <i name="e_0_energy">   -159.99263952 </i>
   </energy>
  </scstep>
  <scstep>
   <time name="diag">    2.08    2.08</time>
   <time name="diis">    6.66    6.67</time>
   <time name="orth">    0.37    0.37</time>
   <time name="total">   10.29   10.30</time>
   <dipole>
    <v name="dipole">      0.00000000       0.00000000       0.00211815 </v>
    <i name="Tr[quadrupol]"> -16022.06309268 </i>
    <i name="Echarged">      0.00000000 </i>
    <i name="Edipol_quadrupol">      0.00000000 </i>
    <i name="Eion">      0.00000000 </i>
   </dipole>
   <energy>
    <i name="e_fr_energy">   -160.03488949 </i>
    <i name="e_wo_entrp">   -159.95082351 </i>
    <i name="e_0_energy">   -159.99285650 </i>
   </energy>
  </scstep>
  <scstep>
   <time name="diag">    1.93    1.93</time>
   <time name="diis">    6.52    6.56</time>
   <time name="orth">    0.37    0.37</time>
   <time name="total">   10.00   10.04</time>
   <dipole>
    <v name="dipole">      0.00000000       0.00000000      -0.00271877 </v>
    <i name="Tr[quadrupol]"> -16022.12808256 </i>
    <i name="Echarged">      0.00000000 </i>
    <i name="Edipol_quadrupol">      0.00000000 </i>
    <i name="Eion">      0.00000000 </i>
   </dipole>
   <energy>
    <i name="e_fr_energy">   -160.03506424 </i>
    <i name="e_wo_entrp">   -159.95098674 </i>
    <i name="e_0_energy">   -159.99302549 </i>
   </energy>
  </scstep>
  <scstep>
   <time name="diag">    1.93    1.93</time>
   <time name="diis">    4.68    4.68</time>
   <time name="orth">    0.37    0.37</time>
   <time name="total">    7.23    7.24</time>
   <dipole>
    <v name="dipole">      0.00000000       0.00000000      -0.00277403 </v>
    <i name="Tr[quadrupol]"> -16022.18234590 </i>
    <i name="Echarged">      0.00000000 </i>
    <i name="Edipol_quadrupol">      0.00000000 </i>
    <i name="Eion">      0.00000000 </i>
   </dipole>
   <energy>
    <i name="alphaZ">   1186.68761486 </i>
    <i name="ewald"> 194846.90734617 </i>
    <i name="hartreedc">-262086.70702918 </i>
    <i name="XCdc">   -707.88693692 </i>
    <i name="pawpsdc">  70659.29444638 </i>
    <i name="pawaedc"> -67857.18348546 </i>
    <i name="eentropy">     -0.08408047 </i>
    <i name="bandstr">  -2585.60243743 </i>
    <i name="atom">  66384.53941607 </i>
    <i name="e_fr_energy">   -160.03514598 </i>
    <i name="e_wo_entrp">   -159.95106551 </i>
    <i name="e_0_energy">   -159.99310575 </i>
   </energy>
  </scstep>
  <structure>
   <crystal>
    <varray name="basis" >
     <v>      11.52301211       0.00000000       0.00000000 </v>
     <v>       0.00000000      11.52301211       0.00000000 </v>
     <v>       0.00000000       0.00000000      22.11100000 </v>
    </varray>
    <i name="volume">   2935.89433469 </i>
    <varray name="rec_basis" >
     <v>       0.08678286       0.00000000       0.00000000 </v>
     <v>       0.00000000       0.08678286       0.00000000 </v>
     <v>       0.00000000       0.00000000       0.04522636 </v>
    </varray>
   </crystal>
   <varray name="positions" >
    <v>       0.12500000       0.12500000       0.00000000 </v>
    <v>       0.37500000       0.12500000       0.00000000 </v>
    <v>       0.62500000       0.12500000       0.00000000 </v>
    <v>       0.87500000       0.12500000       0.00000000 </v>
    <v>       0.12500000       0.37500000       0.00000000 </v>
    <v>       0.37500000       0.37500000       0.00000000 </v>
    <v>       0.62500000       0.37500000       0.00000000 </v>
    <v>       0.87500000       0.37500000       0.00000000 </v>
    <v>       0.12500000       0.62500000       0.00000000 </v>
    <v>       0.37500000       0.62500000       0.00000000 </v>
    <v>       0.62500000       0.62500000       0.00000000 </v>
    <v>       0.87500000       0.62500000       0.00000000 </v>
    <v>       0.12500000       0.87500000       0.00000000 </v>
    <v>       0.37500000       0.87500000       0.00000000 </v>
    <v>       0.62500000       0.87500000       0.00000000 </v>
    <v>       0.87500000       0.87500000       0.00000000 </v>
    <v>       0.00000000       0.00000000       0.09212609 </v>
    <v>       0.25000000       0.00000000       0.09212609 </v>
    <v>       0.50000000       0.00000000       0.09212609 </v>
    <v>       0.75000000       0.00000000       0.09212609 </v>
    <v>       0.00000000       0.25000000       0.09212609 </v>
    <v>       0.25000000       0.25000000       0.09212609 </v>
    <v>       0.50000000       0.25000000       0.09212609 </v>
    <v>       0.75000000       0.25000000       0.09212609 </v>
    <v>       0.00000000       0.50000000       0.09212609 </v>
    <v>       0.25000000       0.50000000       0.09212609 </v>
    <v>       0.50000000       0.50000000       0.09212609 </v>
    <v>       0.75000000       0.50000000       0.09212609 </v>
    <v>       0.00000000       0.75000000       0.09212609 </v>
    <v>       0.25000000       0.75000000       0.09212609 </v>
    <v>       0.50000000       0.75000000       0.09212609 </v>
    <v>       0.75000000       0.75000000       0.09212609 </v>
    <v>       0.12500000       0.12500000       0.18425218 </v>
    <v>       0.37500000       0.12500000       0.18425218 </v>
    <v>       0.62500000       0.12500000       0.18425218 </v>
    <v>       0.87500000       0.12500000       0.18425218 </v>
    <v>       0.12500000       0.37500000       0.18425218 </v>
    <v>       0.37500000       0.37500000       0.18425218 </v>
    <v>       0.62500000       0.37500000       0.18425218 </v>
    <v>       0.87500000       0.37500000       0.18425218 </v>
    <v>       0.12500000       0.62500000       0.18425218 </v>
    <v>       0.37500000       0.62500000       0.18425218 </v>
    <v>       0.62500000       0.62500000       0.18425218 </v>
    <v>       0.87500000       0.62500000       0.18425218 </v>
    <v>       0.12500000       0.87500000       0.18425218 </v>
    <v>       0.37500000       0.87500000       0.18425218 </v>
    <v>       0.62500000       0.87500000       0.18425218 </v>
    <v>       0.87500000       0.87500000       0.18425218 </v>
    <v>       0.00000000       0.00000000       0.27637827 </v>
    <v>       0.25000000       0.00000000       0.27637827 </v>
    <v>       0.50000000       0.00000000       0.27637827 </v>
    <v>       0.75000000       0.00000000       0.27637827 </v>
    <v>       0.00000000       0.25000000       0.27637827 </v>
    <v>       0.25000000       0.25000000       0.27637827 </v>
    <v>       0.50000000       0.25000000       0.27637827 </v>
    <v>       0.75000000       0.25000000       0.27637827 </v>
    <v>       0.00000000       0.50000000       0.27637827 </v>
    <v>       0.25000000       0.50000000       0.27637827 </v>
    <v>       0.50000000       0.50000000       0.27637827 </v>
    <v>       0.75000000       0.50000000       0.27637827 </v>
    <v>       0.00000000       0.75000000       0.27637827 </v>
    <v>       0.25000000       0.75000000       0.27637827 </v>
    <v>       0.50000000       0.75000000       0.27637827 </v>
    <v>       0.75000000       0.75000000       0.27637827 </v>
   </varray>
  </structure>
  <varray name="forces" >
   <v>       0.00000000       0.00000000      -0.03431377 </v>
   <v>       0.00000000      -0.00000000      -0.03431377 </v>
   <v>      -0.00000000       0.00000000      -0.03431377 </v>
   <v>       0.00000000       0.00000000      -0.03431377 </v>
   <v>       0.00000000       0.00000000      -0.03431377 </v>
   <v>       0.00000000      -0.00000000      -0.03431377 </v>
   <v>       0.00000000      -0.00000000      -0.03431377 </v>
   <v>       0.00000000       0.00000000      -0.03431377 </v>
   <v>       0.00000000       0.00000000      -0.03431377 </v>
   <v>       0.00000000       0.00000000      -0.03431377 </v>
   <v>       0.00000000       0.00000000      -0.03431377 </v>
   <v>       0.00000000       0.00000000      -0.03431377 </v>
   <v>       0.00000000      -0.00000000      -0.03431377 </v>
   <v>       0.00000000       0.00000000      -0.03431377 </v>
   <v>       0.00000000      -0.00000000      -0.03431377 </v>
   <v>       0.00000000       0.00000000      -0.03431377 </v>
   <v>      -0.00000000       0.00000000      -0.03899611 </v>
   <v>      -0.00000000       0.00000000      -0.03899611 </v>
   <v>      -0.00000000       0.00000000      -0.03899611 </v>
   <v>      -0.00000000       0.00000000      -0.03899611 </v>
   <v>       0.00000000      -0.00000000      -0.03899611 </v>
   <v>      -0.00000000      -0.00000000      -0.03899611 </v>
   <v>      -0.00000000      -0.00000000      -0.03899611 </v>
   <v>      -0.00000000      -0.00000000      -0.03899611 </v>
   <v>      -0.00000000       0.00000000      -0.03899611 </v>
   <v>      -0.00000000      -0.00000000      -0.03899611 </v>
   <v>      -0.00000000       0.00000000      -0.03899611 </v>
   <v>      -0.00000000      -0.00000000      -0.03899611 </v>
   <v>      -0.00000000       0.00000000      -0.03899611 </v>
   <v>      -0.00000000      -0.00000000      -0.03899611 </v>
   <v>      -0.00000000       0.00000000      -0.03899611 </v>
   <v>      -0.00000000       0.00000000      -0.03899611 </v>
   <v>      -0.00000000      -0.00000000       0.03870403 </v>
   <v>      -0.00000000      -0.00000000       0.03870403 </v>
   <v>      -0.00000000       0.00000000       0.03870403 </v>
   <v>       0.00000000       0.00000000       0.03870403 </v>
   <v>       0.00000000      -0.00000000       0.03870403 </v>
   <v>      -0.00000000       0.00000000       0.03870403 </v>
   <v>       0.00000000      -0.00000000       0.03870403 </v>
   <v>       0.00000000      -0.00000000       0.03870403 </v>
   <v>       0.00000000      -0.00000000       0.03870403 </v>
   <v>       0.00000000      -0.00000000       0.03870403 </v>
   <v>       0.00000000       0.00000000       0.03870403 </v>
   <v>       0.00000000      -0.00000000       0.03870403 </v>
   <v>       0.00000000       0.00000000       0.03870403 </v>
   <v>       0.00000000       0.00000000       0.03870403 </v>
   <v>       0.00000000      -0.00000000       0.03870403 </v>
   <v>       0.00000000      -0.00000000       0.03870403 </v>
   <v>      -0.00000000       0.00000000       0.03460585 </v>
   <v>       0.00000000       0.00000000       0.03460585 </v>
   <v>       0.00000000       0.00000000       0.03460585 </v>
   <v>      -0.00000000       0.00000000       0.03460585 </v>
   <v>       0.00000000       0.00000000       0.03460585 </v>
   <v>       0.00000000      -0.00000000       0.03460585 </v>
   <v>       0.00000000       0.00000000       0.03460585 </v>
   <v>       0.00000000      -0.00000000       0.03460585 </v>
   <v>       0.00000000       0.00000000       0.03460585 </v>
   <v>       0.00000000      -0.00000000       0.03460585 </v>
   <v>       0.00000000      -0.00000000       0.03460585 </v>
   <v>       0.00000000      -0.00000000       0.03460585 </v>
   <v>       0.00000000       0.00000000       0.03460585 </v>
   <v>       0.00000000      -0.00000000       0.03460585 </v>
   <v>       0.00000000      -0.00000000       0.03460585 </v>
   <v>       0.00000000      -0.00000000       0.03460585 </v>
  </varray>
  <varray name="stress" >
   <v>     -10.13633177       0.00000000       0.00000000 </v>
   <v>       0.00000000     -10.13633177       0.00000000 </v>
   <v>      -0.00000000       0.00000000       0.71434511 </v>
  </varray>
  <energy>
   <i name="e_fr_energy">   -182.33401444 </i>
   <i name="e_wo_entrp">   -182.29197420 </i>
   <i name="e_0_energy">     -0.08408047 </i>
  </energy>
  <time name="totalsc">  272.44  272.64</time>
 </calculation>
 <calculation>
  <scstep>
   <time name="dav">   16.01   16.03</time>
   <time name="total">   17.19   17.21</time>
   <dipole>
    <v name="dipole">      0.00000000       0.00000000      -0.01030577 </v>
    <i name="Tr[quadrupol]"> -16022.24942033 </i>
    <i name="Echarged">      0.00000000 </i>
    <i name="Edipol_quadrupol">      0.00000000 </i>
    <i name="Eion">      0.00000000 </i>
   </dipole>
   <energy>
    <i name="alphaZ">   1187.08571622 </i>
    <i name="ewald"> 194801.84474031 </i>
    <i name="hartreedc">-262042.38052011 </i>
    <i name="XCdc">   -707.90773030 </i>
    <i name="pawpsdc">  70659.10806287 </i>
    <i name="pawaedc"> -67857.00438693 </i>
    <i name="eentropy">     -0.08416931 </i>
    <i name="bandstr">  -2585.24042880 </i>
    <i name="atom">  66384.53941607 </i>
    <i name="e_fr_energy">   -160.03929997 </i>
    <i name="e_wo_entrp">   -159.95513066 </i>
    <i name="e_0_energy">   -159.99721531 </i>
   </energy>
  </scstep>
  <scstep>
   <time name="diag">    1.93    1.93</time>
   <time name="diis">   10.89   10.89</time>
   <time name="orth">    0.37    0.37</time>
   <time name="total">   14.38   14.38</time>
   <dipole>
    <v name="dipole">      0.00000000       0.00000000       0.01225859 </v>
    <i name="Tr[quadrupol]"> -16022.25699900 </i>
    <i name="Echarged">      0.00000000 </i>
    <i name="Edipol_quadrupol">      0.00000000 </i>
    <i name="Eion">      0.00000000 </i>
   </dipole>
   <energy>
    <i name="e_fr_energy">   -160.03960670 </i>
    <i name="e_wo_entrp">   -159.95541778 </i>
    <i name="e_0_energy">   -159.99751224 </i>
   </energy>
  </scstep>
  <scstep>
   <time name="diag">    1.93    1.93</time>
   <time name="diis">    6.28    6.28</time>
   <time name="orth">    0.37    0.37</time>
   <time name="total">    9.76    9.76</time>
   <dipole>
    <v name="dipole">      0.00000000       0.00000000       0.00995838 </v>
    <i name="Tr[quadrupol]"> -16022.26410247 </i>
    <i name="Echarged">      0.00000000 </i>
    <i name="Edipol_quadrupol">      0.00000000 </i>
    <i name="Eion">      0.00000000 </i>
   </dipole>
   <energy>
    <i name="e_fr_energy">   -160.03944877 </i>
    <i name="e_wo_entrp">   -159.95525369 </i>
    <i name="e_0_energy">   -159.99735123 </i>
   </energy>
  </scstep>
  <scstep>
   <time name="diag">    1.94    1.94</time>
   <time name="diis">    6.63    6.63</time>
   <time name="orth">    0.37    0.37</time>
   <time name="total">    9.19    9.20</time>
   <dipole>
    <v name="dipole">      0.00000000       0.00000000      -0.00520480 </v>
    <i name="Tr[quadrupol]"> -16022.26682556 </i>
    <i name="Echarged">      0.00000000 </i>
    <i name="Edipol_quadrupol">      0.00000000 </i>
    <i name="Eion">      0.00000000 </i>
   </dipole>
   <energy>
    <i name="alphaZ">   1186.72888051 </i>
    <i name="ewald"> 194801.84474031 </i>
    <i name="hartreedc">-262042.69843998 </i>
    <i name="XCdc">   -707.90485458 </i>
    <i name="pawpsdc">  70656.86444177 </i>
    <i name="pawaedc"> -67854.73095563 </i>
    <i name="eentropy">     -0.08421057 </i>
    <i name="bandstr">  -2584.59846026 </i>
    <i name="atom">  66384.53941607 </i>
    <i name="e_fr_energy">   -160.03944236 </i>
    <i name="e_wo_entrp">   -159.95523179 </i>
    <i name="e_0_energy">   -159.99733708 </i>
   </energy>
  </scstep>
  <structure>
   <crystal>
    <varray name="basis" >
     <v>      11.52301211       0.00000000       0.00000000 </v>
     <v>       0.00000000      11.52301211       0.00000000 </v>
     <v>       0.00000000       0.00000000      22.11100000 </v>
    </varray>
    <i name="volume">   2935.89433469 </i>
    <varray name="rec_basis" >
     <v>       0.08678286       0.00000000       0.00000000 </v>
     <v>       0.00000000       0.08678286       0.00000000 </v>
     <v>       0.00000000       0.00000000       0.04522636 </v>
    </varray>
   </crystal>
   <varray name="positions" >
    <v>       0.12500000       0.12500000       0.00000000 </v>
    <v>       0.37500000       0.12500000       0.00000000 </v>
    <v>       0.62500000       0.12500000       0.00000000 </v>
    <v>       0.87500000       0.12500000       0.00000000 </v>
    <v>       0.12500000       0.37500000       0.00000000 </v>
    <v>       0.37500000       0.37500000       0.00000000 </v>
    <v>       0.62500000       0.37500000       0.00000000 </v>
    <v>       0.87500000       0.37500000       0.00000000 </v>
    <v>       0.12500000       0.62500000       0.00000000 </v>
    <v>       0.37500000       0.62500000       0.00000000 </v>
    <v>       0.62500000       0.62500000       0.00000000 </v>
    <v>       0.87500000       0.62500000       0.00000000 </v>
    <v>       0.12500000       0.87500000       0.00000000 </v>
    <v>       0.37500000       0.87500000       0.00000000 </v>
    <v>       0.62500000       0.87500000       0.00000000 </v>
    <v>       0.87500000       0.87500000       0.00000000 </v>
    <v>       0.00000000       0.00000000       0.09212609 </v>
    <v>       0.25000000       0.00000000       0.09212609 </v>
    <v>       0.50000000       0.00000000       0.09212609 </v>
    <v>       0.75000000       0.00000000       0.09212609 </v>
    <v>       0.00000000       0.25000000       0.09212609 </v>
    <v>       0.25000000       0.25000000       0.09212609 </v>
    <v>       0.50000000       0.25000000       0.09212609 </v>
    <v>       0.75000000       0.25000000       0.09212609 </v>
    <v>       0.00000000       0.50000000       0.09212609 </v>
    <v>       0.25000000       0.50000000       0.09212609 </v>
    <v>       0.50000000       0.50000000       0.09212609 </v>
    <v>       0.75000000       0.50000000       0.09212609 </v>
    <v>       0.00000000       0.75000000       0.09212609 </v>
    <v>       0.25000000       0.75000000       0.09212609 </v>
    <v>       0.50000000       0.75000000       0.09212609 </v>
    <v>       0.75000000       0.75000000       0.09212609 </v>
    <v>       0.12500000       0.12500000       0.18429433 </v>
    <v>       0.37500000       0.12500000       0.18429433 </v>
    <v>       0.62500000       0.12500000       0.18429433 </v>
    <v>       0.87500000       0.12500000       0.18429433 </v>
    <v>       0.12500000       0.37500000       0.18429433 </v>
    <v>       0.37500000       0.37500000       0.18429433 </v>
    <v>       0.62500000       0.37500000       0.18429433 </v>
    <v>       0.87500000       0.37500000       0.18429433 </v>
    <v>       0.12500000       0.62500000       0.18429433 </v>
    <v>       0.37500000       0.62500000       0.18429433 </v>
    <v>       0.62500000       0.62500000       0.18429433 </v>
    <v>       0.87500000       0.62500000       0.18429433 </v>
    <v>       0.12500000       0.87500000       0.18429433 </v>
    <v>       0.37500000       0.87500000       0.18429433 </v>
    <v>       0.62500000       0.87500000       0.18429433 </v>
    <v>       0.87500000       0.87500000       0.18429433 </v>
    <v>      -0.00000000       0.00000000       0.27641595 </v>
    <v>       0.25000000       0.00000000       0.27641595 </v>
    <v>       0.50000000       0.00000000       0.27641595 </v>
    <v>       0.75000000       0.00000000       0.27641595 </v>
    <v>       0.00000000       0.25000000       0.27641595 </v>
    <v>       0.25000000       0.25000000       0.27641595 </v>
    <v>       0.50000000       0.25000000       0.27641595 </v>
    <v>       0.75000000       0.25000000       0.27641595 </v>
    <v>       0.00000000       0.50000000       0.27641595 </v>
    <v>       0.25000000       0.50000000       0.27641595 </v>
    <v>       0.50000000       0.50000000       0.27641595 </v>
    <v>       0.75000000       0.50000000       0.27641595 </v>
    <v>       0.00000000       0.75000000       0.27641595 </v>
    <v>       0.25000000       0.75000000       0.27641595 </v>
    <v>       0.50000000       0.75000000       0.27641595 </v>
    <v>       0.75000000       0.75000000       0.27641595 </v>
   </varray>
  </structure>
  <varray name="forces" >
   <v>      -0.00000000      -0.00000000      -0.03351463 </v>
   <v>       0.00000000      -0.00000000      -0.03351463 </v>
   <v>      -0.00000000      -0.00000000      -0.03351463 </v>
   <v>      -0.00000000      -0.00000000      -0.03351463 </v>
   <v>       0.00000000      -0.00000000      -0.03351463 </v>
   <v>       0.00000000      -0.00000000      -0.03351463 </v>
   <v>      -0.00000000      -0.00000000      -0.03351463 </v>
   <v>      -0.00000000      -0.00000000      -0.03351463 </v>
   <v>       0.00000000      -0.00000000      -0.03351463 </v>
   <v>      -0.00000000      -0.00000000      -0.03351463 </v>
   <v>       0.00000000      -0.00000000      -0.03351463 </v>
   <v>       0.00000000      -0.00000000      -0.03351463 </v>
   <v>      -0.00000000       0.00000000      -0.03351463 </v>
   <v>      -0.00000000       0.00000000      -0.03351463 </v>
   <v>       0.00000000       0.00000000      -0.03351463 </v>
   <v>       0.00000000       0.00000000      -0.03351463 </v>
   <v>       0.00000000      -0.00000000      -0.03532946 </v>
   <v>       0.00000000      -0.00000000      -0.03532946 </v>
   <v>       0.00000000       0.00000000      -0.03532946 </v>
   <v>       0.00000000       0.00000000      -0.03532946 </v>
   <v>       0.00000000       0.00000000      -0.03532946 </v>
   <v>      -0.00000000       0.00000000      -0.03532946 </v>
   <v>       0.00000000       0.00000000      -0.03532946 </v>
   <v>       0.00000000      -0.00000000      -0.03532946 </v>
   <v>       0.00000000       0.00000000      -0.03532946 </v>
   <v>       0.00000000      -0.00000000      -0.03532946 </v>
   <v>       0.00000000      -0.00000000      -0.03532946 </v>
   <v>       0.00000000       0.00000000      -0.03532946 </v>
   <v>       0.00000000      -0.00000000      -0.03532946 </v>
   <v>       0.00000000      -0.00000000      -0.03532946 </v>
   <v>       0.00000000       0.00000000      -0.03532946 </v>
   <v>       0.00000000      -0.00000000      -0.03532946 </v>
   <v>      -0.00000000       0.00000000       0.03487845 </v>
   <v>      -0.00000000       0.00000000       0.03487845 </v>
   <v>      -0.00000000       0.00000000       0.03487845 </v>
   <v>      -0.00000000       0.00000000       0.03487845 </v>
   <v>      -0.00000000       0.00000000       0.03487845 </v>
   <v>      -0.00000000       0.00000000       0.03487845 </v>
   <v>      -0.00000000       0.00000000       0.03487845 </v>
   <v>      -0.00000000       0.00000000       0.03487845 </v>
   <v>      -0.00000000       0.00000000       0.03487845 </v>
   <v>      -0.00000000      -0.00000000       0.03487845 </v>
   <v>      -0.00000000      -0.00000000       0.03487845 </v>
   <v>      -0.00000000      -0.00000000       0.03487845 </v>
   <v>      -0.00000000       0.00000000       0.03487845 </v>
   <v>      -0.00000000      -0.00000000       0.03487845 </v>
   <v>      -0.00000000      -0.00000000       0.03487845 </v>
   <v>      -0.00000000       0.00000000       0.03487845 </v>
   <v>      -0.00000000       0.00000000       0.03396564 </v>
   <v>      -0.00000000       0.00000000       0.03396564 </v>
   <v>       0.00000000      -0.00000000       0.03396564 </v>
   <v>       0.00000000       0.00000000       0.03396564 </v>
   <v>       0.00000000      -0.00000000       0.03396564 </v>
   <v>       0.00000000      -0.00000000       0.03396564 </v>
   <v>       0.00000000       0.00000000       0.03396564 </v>
   <v>       0.00000000      -0.00000000       0.03396564 </v>
   <v>       0.00000000       0.00000000       0.03396564 </v>
   <v>       0.00000000      -0.00000000       0.03396564 </v>
   <v>       0.00000000       0.00000000       0.03396564 </v>
   <v>       0.00000000       0.00000000       0.03396564 </v>
   <v>       0.00000000       0.00000000       0.03396564 </v>
   <v>       0.00000000      -0.00000000       0.03396564 </v>
   <v>       0.00000000      -0.00000000       0.03396564 </v>
   <v>       0.00000000       0.00000000       0.03396564 </v>
  </varray>
  <varray name="stress" >
   <v>     -10.17740624       0.00000000       0.00000000 </v>
   <v>       0.00000000     -10.17740624      -0.00000000 </v>
   <v>       0.00000000       0.00000000       0.64193848 </v>
  </varray>
  <energy>
   <i name="e_fr_energy">   -182.33517927 </i>
   <i name="e_wo_entrp">   -182.29307398 </i>
   <i name="e_0_energy">     -0.08421057 </i>
  </energy>
  <time name="totalsc">   68.78   68.82</time>
 </calculation>
 <calculation>
  <scstep>
   <time name="dav">   15.88   15.89</time>
   <time name="total">   17.06   17.07</time>
   <dipole>
    <v name="dipole">      0.00000000       0.00000000       0.00751196 </v>
    <i name="Tr[quadrupol]"> -16022.27996158 </i>
    <i name="Echarged">      0.00000000 </i>
    <i name="Edipol_quadrupol">      0.00000000 </i>
    <i name="Eion">      0.00000000 </i>
   </dipole>
   <energy>
    <i name="alphaZ">   1186.93445013 </i>
    <i name="ewald"> 194459.69929624 </i>
    <i name="hartreedc">-261701.43666943 </i>
    <i name="XCdc">   -708.06210502 </i>
    <i name="pawpsdc">  70656.22537597 </i>
    <i name="pawaedc"> -67854.08424594 </i>
    <i name="eentropy">     -0.08504378 </i>
    <i name="bandstr">  -2583.79450536 </i>
    <i name="atom">  66384.53941607 </i>
    <i name="e_fr_energy">   -160.06403112 </i>
    <i name="e_wo_entrp">   -159.97898734 </i>
    <i name="e_0_energy">   -160.02150923 </i>
   </energy>
  </scstep>
  <scstep>
   <time name="diag">    1.92    1.93</time>
   <time name="diis">   11.07   11.08</time>
   <time name="orth">    0.37    0.37</time>
   <time name="total">   14.55   14.56</time>
   <dipole>
    <v name="dipole">      0.00000000       0.00000000      -0.00362083 </v>
    <i name="Tr[quadrupol]"> -16022.28301402 </i>
    <i name="Echarged">      0.00000000 </i>
    <i name="Edipol_quadrupol">      0.00000000 </i>
    <i name="Eion">      0.00000000 </i>
   </dipole>
   <energy>
    <i name="e_fr_energy">   -160.06909773 </i>
    <i name="e_wo_entrp">   -159.98397375 </i>
    <i name="e_0_energy">   -160.02653574 </i>
   </energy>
  </scstep>
  <scstep>
   <time name="diag">    1.93    1.94</time>
   <time name="diis">   11.16   11.17</time>
   <time name="orth">    0.37    0.37</time>
   <time name="total">   14.63   14.65</time>
   <dipole>
    <v name="dipole">      0.00000000       0.00000000       0.00840322 </v>
    <i name="Tr[quadrupol]"> -16022.30794959 </i>
    <i name="Echarged">      0.00000000 </i>
    <i name="Edipol_quadrupol">      0.00000000 </i>
    <i name="Eion">      0.00000000 </i>
   </dipole>
   <energy>
    <i name="e_fr_energy">   -160.06909865 </i>
    <i name="e_wo_entrp">   -159.98380183 </i>
    <i name="e_0_energy">   -160.02645024 </i>
   </energy>
  </scstep>
  <scstep>
   <time name="diag">    1.92    1.92</time>
   <time name="diis">    7.82    7.83</time>
   <time name="orth">    0.40    0.40</time>
   <time name="total">   10.40   10.40</time>
   <dipole>
    <v name="dipole">      0.00000000       0.00000000      -0.00805535 </v>
    <i name="Tr[quadrupol]"> -16022.31260885 </i>
    <i name="Echarged">      0.00000000 </i>
    <i name="Edipol_quadrupol">      0.00000000 </i>
    <i name="Eion">      0.00000000 </i>
   </dipole>
   <energy>
    <i name="alphaZ">   1186.75667076 </i>
    <i name="ewald"> 194459.69929624 </i>
    <i name="hartreedc">-261702.75361976 </i>
    <i name="XCdc">   -708.04181091 </i>
    <i name="pawpsdc">  70639.76116069 </i>
    <i name="pawaedc"> -67837.37136642 </i>
    <i name="eentropy">     -0.08534040 </i>
    <i name="bandstr">  -2582.57346064 </i>
    <i name="atom">  66384.53941607 </i>
    <i name="e_fr_energy">   -160.06905435 </i>
    <i name="e_wo_entrp">   -159.98371395 </i>
    <i name="e_0_energy">   -160.02638415 </i>
   </energy>
  </scstep>
  <structure>
   <crystal>
    <varray name="basis" >
     <v>      11.52301211       0.00000000       0.00000000 </v>
     <v>       0.00000000      11.52301211       0.00000000 </v>
     <v>       0.00000000       0.00000000      22.11100000 </v>
    </varray>
    <i name="volume">   2935.89433469 </i>
    <varray name="rec_basis" >
     <v>       0.08678286       0.00000000       0.00000000 </v>
     <v>       0.00000000       0.08678286       0.00000000 </v>
     <v>       0.00000000       0.00000000       0.04522636 </v>
    </varray>
   </crystal>
   <varray name="positions" >
    <v>       0.12500000       0.12500000       0.00000000 </v>
    <v>       0.37500000       0.12500000       0.00000000 </v>
    <v>       0.62500000       0.12500000       0.00000000 </v>
    <v>       0.87500000       0.12500000       0.00000000 </v>
    <v>       0.12500000       0.37500000       0.00000000 </v>
    <v>       0.37500000       0.37500000       0.00000000 </v>
    <v>       0.62500000       0.37500000       0.00000000 </v>
    <v>       0.87500000       0.37500000       0.00000000 </v>
    <v>       0.12500000       0.62500000       0.00000000 </v>
    <v>       0.37500000       0.62500000       0.00000000 </v>
    <v>       0.62500000       0.62500000       0.00000000 </v>
    <v>       0.87500000       0.62500000       0.00000000 </v>
    <v>       0.12500000       0.87500000       0.00000000 </v>
    <v>       0.37500000       0.87500000       0.00000000 </v>
    <v>       0.62500000       0.87500000       0.00000000 </v>
    <v>       0.87500000       0.87500000       0.00000000 </v>
    <v>       0.00000000       0.00000000       0.09212609 </v>
    <v>       0.25000000       0.00000000       0.09212609 </v>
    <v>       0.50000000       0.00000000       0.09212609 </v>
    <v>       0.75000000       0.00000000       0.09212609 </v>
    <v>       0.00000000       0.25000000       0.09212609 </v>
    <v>       0.25000000       0.25000000       0.09212609 </v>
    <v>       0.50000000       0.25000000       0.09212609 </v>
    <v>       0.75000000       0.25000000       0.09212609 </v>
    <v>       0.00000000       0.50000000       0.09212609 </v>
    <v>       0.25000000       0.50000000       0.09212609 </v>
    <v>       0.50000000       0.50000000       0.09212609 </v>
    <v>       0.75000000       0.50000000       0.09212609 </v>
    <v>       0.00000000       0.75000000       0.09212609 </v>
    <v>       0.25000000       0.75000000       0.09212609 </v>
    <v>       0.50000000       0.75000000       0.09212609 </v>
    <v>       0.75000000       0.75000000       0.09212609 </v>
    <v>       0.12500000       0.12500000       0.18459503 </v>
    <v>       0.37500000       0.12500000       0.18459503 </v>
    <v>       0.62500000       0.12500000       0.18459503 </v>
    <v>       0.87500000       0.12500000       0.18459503 </v>
    <v>       0.12500000       0.37500000       0.18459503 </v>
    <v>       0.37500000       0.37500000       0.18459503 </v>
    <v>       0.62500000       0.37500000       0.18459503 </v>
    <v>       0.87500000       0.37500000       0.18459503 </v>
    <v>       0.12500000       0.62500000       0.18459503 </v>
    <v>       0.37500000       0.62500000       0.18459503 </v>
    <v>       0.62500000       0.62500000       0.18459503 </v>
    <v>       0.87500000       0.62500000       0.18459503 </v>
    <v>       0.12500000       0.87500000       0.18459503 </v>
    <v>       0.37500000       0.87500000       0.18459503 </v>
    <v>       0.62500000       0.87500000       0.18459503 </v>
    <v>       0.87500000       0.87500000       0.18459503 </v>
    <v>      -0.00000000       0.00000000       0.27670879 </v>
    <v>       0.25000000       0.00000000       0.27670879 </v>
    <v>       0.50000000      -0.00000000       0.27670879 </v>
    <v>       0.75000000       0.00000000       0.27670879 </v>
    <v>       0.00000000       0.25000000       0.27670879 </v>
    <v>       0.25000000       0.25000000       0.27670879 </v>
    <v>       0.50000000       0.25000000       0.27670879 </v>
    <v>       0.75000000       0.25000000       0.27670879 </v>
    <v>       0.00000000       0.50000000       0.27670879 </v>
    <v>       0.25000000       0.50000000       0.27670879 </v>
    <v>       0.50000000       0.50000000       0.27670879 </v>
    <v>       0.75000000       0.50000000       0.27670879 </v>
    <v>       0.00000000       0.75000000       0.27670879 </v>
    <v>       0.25000000       0.75000000       0.27670879 </v>
    <v>       0.50000000       0.75000000       0.27670879 </v>
    <v>       0.75000000       0.75000000       0.27670879 </v>
   </varray>
  </structure>
  <varray name="forces" >
   <v>       0.00000000      -0.00000000      -0.03159393 </v>
   <v>      -0.00000000      -0.00000000      -0.03159393 </v>
   <v>       0.00000000      -0.00000000      -0.03159393 </v>
   <v>      -0.00000000      -0.00000000      -0.03159393 </v>
   <v>       0.00000000       0.00000000      -0.03159393 </v>
   <v>      -0.00000000       0.00000000      -0.03159393 </v>
   <v>      -0.00000000      -0.00000000      -0.03159393 </v>
   <v>      -0.00000000      -0.00000000      -0.03159393 </v>
   <v>      -0.00000000       0.00000000      -0.03159393 </v>
   <v>       0.00000000      -0.00000000      -0.03159393 </v>
   <v>       0.00000000      -0.00000000      -0.03159393 </v>
   <v>       0.00000000       0.00000000      -0.03159393 </v>
   <v>      -0.00000000       0.00000000      -0.03159393 </v>
   <v>      -0.00000000      -0.00000000      -0.03159393 </v>
   <v>       0.00000000      -0.00000000      -0.03159393 </v>
   <v>      -0.00000000       0.00000000      -0.03159393 </v>
   <v>       0.00000000      -0.00000000      -0.01333643 </v>
   <v>       0.00000000      -0.00000000      -0.01333643 </v>
   <v>       0.00000000       0.00000000      -0.01333643 </v>
   <v>       0.00000000       0.00000000      -0.01333643 </v>
   <v>      -0.00000000      -0.00000000      -0.01333643 </v>
   <v>      -0.00000000      -0.00000000      -0.01333643 </v>
   <v>       0.00000000      -0.00000000      -0.01333643 </v>
   <v>       0.00000000       0.00000000      -0.01333643 </v>
   <v>      -0.00000000       0.00000000      -0.01333643 </v>
   <v>       0.00000000       0.00000000      -0.01333643 </v>
   <v>       0.00000000       0.00000000      -0.01333643 </v>
   <v>       0.00000000      -0.00000000      -0.01333643 </v>
   <v>       0.00000000       0.00000000      -0.01333643 </v>
   <v>       0.00000000       0.00000000      -0.01333643 </v>
   <v>       0.00000000       0.00000000      -0.01333643 </v>
   <v>       0.00000000       0.00000000      -0.01333643 </v>
   <v>       0.00000000      -0.00000000       0.01203070 </v>
   <v>       0.00000000       0.00000000       0.01203070 </v>
   <v>      -0.00000000       0.00000000       0.01203070 </v>
   <v>       0.00000000      -0.00000000       0.01203070 </v>
   <v>       0.00000000      -0.00000000       0.01203070 </v>
   <v>       0.00000000      -0.00000000       0.01203070 </v>
   <v>       0.00000000      -0.00000000       0.01203070 </v>
   <v>       0.00000000       0.00000000       0.01203070 </v>
   <v>       0.00000000       0.00000000       0.01203070 </v>
   <v>       0.00000000       0.00000000       0.01203070 </v>
   <v>       0.00000000       0.00000000       0.01203070 </v>
   <v>       0.00000000       0.00000000       0.01203070 </v>
   <v>      -0.00000000      -0.00000000       0.01203070 </v>
   <v>       0.00000000      -0.00000000       0.01203070 </v>
   <v>      -0.00000000      -0.00000000       0.01203070 </v>
   <v>      -0.00000000       0.00000000       0.01203070 </v>
   <v>      -0.00000000       0.00000000       0.03289966 </v>
   <v>      -0.00000000       0.00000000       0.03289966 </v>
   <v>      -0.00000000      -0.00000000       0.03289966 </v>
   <v>      -0.00000000       0.00000000       0.03289966 </v>
   <v>      -0.00000000      -0.00000000       0.03289966 </v>
   <v>      -0.00000000      -0.00000000       0.03289966 </v>
   <v>      -0.00000000       0.00000000       0.03289966 </v>
   <v>      -0.00000000       0.00000000       0.03289966 </v>
   <v>      -0.00000000       0.00000000       0.03289966 </v>
   <v>      -0.00000000      -0.00000000       0.03289966 </v>
   <v>      -0.00000000      -0.00000000       0.03289966 </v>
   <v>       0.00000000      -0.00000000       0.03289966 </v>
   <v>      -0.00000000      -0.00000000       0.03289966 </v>
   <v>      -0.00000000       0.00000000       0.03289966 </v>
   <v>      -0.00000000       0.00000000       0.03289966 </v>
   <v>       0.00000000      -0.00000000       0.03289966 </v>
  </varray>
  <varray name="stress" >
   <v>     -10.48600370       0.00000000       0.00000000 </v>
   <v>       0.00000000     -10.48600370       0.00000000 </v>
   <v>       0.00000000       0.00000000       0.12995290 </v>
  </varray>
  <energy>
   <i name="e_fr_energy">   -182.34157922 </i>
   <i name="e_wo_entrp">   -182.29890902 </i>
   <i name="e_0_energy">     -0.08534040 </i>
  </energy>
  <time name="totalsc">   74.96   75.00</time>
 </calculation>
 <calculation>
  <scstep>
   <time name="dav">   15.56   15.57</time>
   <time name="total">   16.74   16.74</time>
   <dipole>
    <v name="dipole">      0.00000000       0.00000000       0.00370554 </v>
    <i name="Tr[quadrupol]"> -16022.32093775 </i>
    <i name="Echarged">      0.00000000 </i>
    <i name="Edipol_quadrupol">      0.00000000 </i>
    <i name="Eion">      0.00000000 </i>
   </dipole>
   <energy>
    <i name="alphaZ">   1186.79170995 </i>
    <i name="ewald"> 193228.18478965 </i>
    <i name="hartreedc">-260474.70344321 </i>
    <i name="XCdc">   -708.69176993 </i>
    <i name="pawpsdc">  70633.39486315 </i>
    <i name="pawaedc"> -67830.91701573 </i>
    <i name="eentropy">     -0.09259462 </i>
    <i name="bandstr">  -2578.59551611 </i>
    <i name="atom">  66384.53941607 </i>
    <i name="e_fr_energy">   -160.08956077 </i>
    <i name="e_wo_entrp">   -159.99696615 </i>
    <i name="e_0_energy">   -160.04326346 </i>
   </energy>
  </scstep>
  <scstep>
   <time name="diag">    1.93    1.93</time>
   <time name="diis">   11.25   11.26</time>
   <time name="orth">    0.37    0.37</time>
   <time name="total">   14.72   14.73</time>
   <dipole>
    <v name="dipole">      0.00000000       0.00000000       0.02719538 </v>
    <i name="Tr[quadrupol]"> -16022.33304447 </i>
    <i name="Echarged">      0.00000000 </i>
    <i name="Edipol_quadrupol">      0.00000000 </i>
    <i name="Eion">      0.00000000 </i>
   </dipole>
   <energy>
    <i name="e_fr_energy">   -160.14610875 </i>
    <i name="e_wo_entrp">   -160.05386016 </i>
    <i name="e_0_energy">   -160.09998445 </i>
   </energy>
  </scstep>
  <scstep>
   <time name="diag">    1.93    1.93</time>
   <time name="diis">   11.27   11.28</time>
   <time name="orth">    0.37    0.37</time>
   <time name="total">   14.75   14.76</time>
   <dipole>
    <v name="dipole">      0.00000000       0.00000000      -0.00632489 </v>
    <i name="Tr[quadrupol]"> -16022.31610503 </i>
    <i name="Echarged">      0.00000000 </i>
    <i name="Edipol_quadrupol">      0.00000000 </i>
    <i name="Eion">      0.00000000 </i>
   </dipole>
   <energy>
    <i name="e_fr_energy">   -160.14625503 </i>
    <i name="e_wo_entrp">   -160.05346750 </i>
    <i name="e_0_energy">   -160.09986126 </i>
   </energy>
  </scstep>
  <scstep>
   <time name="diag">    1.93    1.93</time>
   <time name="diis">   11.23   11.23</time>
   <time name="orth">    0.37    0.37</time>
   <time name="total">   14.70   14.71</time>
   <dipole>
    <v name="dipole">      0.00000000       0.00000000       0.02898618 </v>
    <i name="Tr[quadrupol]"> -16022.39932632 </i>
    <i name="Echarged">      0.00000000 </i>
    <i name="Edipol_quadrupol">      0.00000000 </i>
    <i name="Eion">      0.00000000 </i>
   </dipole>
   <energy>
    <i name="e_fr_energy">   -160.14570307 </i>
    <i name="e_wo_entrp">   -160.05260830 </i>
    <i name="e_0_energy">   -160.09915568 </i>
   </energy>
  </scstep>
  <scstep>
   <time name="diag">    1.93    1.93</time>
   <time name="diis">   10.95   10.96</time>
   <time name="orth">    0.37    0.37</time>
   <time name="total">   14.43   14.43</time>
   <dipole>
    <v name="dipole">      0.00000000       0.00000000       0.00579898 </v>
    <i name="Tr[quadrupol]"> -16022.35768262 </i>
    <i name="Echarged">      0.00000000 </i>
    <i name="Edipol_quadrupol">      0.00000000 </i>
    <i name="Eion">      0.00000000 </i>
   </dipole>
   <energy>
    <i name="e_fr_energy">   -160.14440072 </i>
    <i name="e_wo_entrp">   -160.05111301 </i>
    <i name="e_0_energy">   -160.09775687 </i>
   </energy>
  </scstep>
  <scstep>
   <time name="diag">    1.93    1.93</time>
   <time name="diis">    6.52    6.53</time>
   <time name="orth">    0.37    0.37</time>
   <time name="total">    9.08    9.08</time>
   <dipole>
    <v name="dipole">      0.00000000       0.00000000       0.00838462 </v>
    <i name="Tr[quadrupol]"> -16022.35761872 </i>
    <i name="Echarged">      0.00000000 </i>
    <i name="Edipol_quadrupol">      0.00000000 </i>
    <i name="Eion">      0.00000000 </i>
   </dipole>
   <energy>
    <i name="alphaZ">   1186.98836981 </i>
    <i name="ewald"> 193228.18478965 </i>
    <i name="hartreedc">-260477.80001093 </i>
    <i name="XCdc">   -708.60004719 </i>
    <i name="pawpsdc">  70544.76802000 </i>
    <i name="pawaedc"> -67740.93424367 </i>
    <i name="eentropy">     -0.09313691 </i>
    <i name="bandstr">  -2577.19748425 </i>
    <i name="atom">  66384.53941607 </i>
    <i name="e_fr_energy">   -160.14432742 </i>
    <i name="e_wo_entrp">   -160.05119051 </i>
    <i name="e_0_energy">   -160.09775896 </i>
   </energy>
  </scstep>
  <structure>
   <crystal>
    <varray name="basis" >
     <v>      11.52301211       0.00000000       0.00000000 </v>
     <v>       0.00000000      11.52301211       0.00000000 </v>
     <v>       0.00000000       0.00000000      22.11100000 </v>
    </varray>
    <i name="volume">   2935.89433469 </i>
    <varray name="rec_basis" >
     <v>       0.08678286       0.00000000       0.00000000 </v>
     <v>       0.00000000       0.08678286       0.00000000 </v>
     <v>       0.00000000       0.00000000       0.04522636 </v>
    </varray>
   </crystal>
   <varray name="positions" >
    <v>       0.12500000       0.12500000       0.00000000 </v>
[...]
       <r>    -5.6288    31.0492     6.2338 </r>
       <r>    -5.5790    47.2529     8.5889 </r>
       <r>    -5.5291    60.9587    11.6270 </r>
       <r>    -5.4793    68.2892    15.0305 </r>
       <r>    -5.4294    70.5719    18.5478 </r>
       <r>    -5.3796    72.4571    22.1590 </r>
       <r>    -5.3298    76.3151    25.9624 </r>
       <r>    -5.2799    79.3922    29.9193 </r>
       <r>    -5.2301    78.8707    33.8501 </r>
       <r>    -5.1802    76.7395    37.6748 </r>
       <r>    -5.1304    75.7388    41.4495 </r>
       <r>    -5.0806    76.2832    45.2514 </r>
       <r>    -5.0307    79.0518    49.1913 </r>
       <r>    -4.9809    83.1731    53.3366 </r>
       <r>    -4.9311    85.9442    57.6200 </r>
       <r>    -4.8812    86.8191    61.9470 </r>
       <r>    -4.8314    87.5395    66.3099 </r>
       <r>    -4.7815    91.6267    70.8765 </r>
       <r>    -4.7317    99.6152    75.8412 </r>
       <r>    -4.6819   102.9000    80.9697 </r>
       <r>    -4.6320    95.1927    85.7140 </r>
       <r>    -4.5822    83.0544    89.8534 </r>
       <r>    -4.5323    74.5952    93.5711 </r>
       <r>    -4.4825    71.3248    97.1259 </r>
       <r>    -4.4327    73.2664   100.7775 </r>
       <r>    -4.3828    78.7528   104.7024 </r>
       <r>    -4.3330    82.5272   108.8155 </r>
       <r>    -4.2831    83.1861   112.9615 </r>
       <r>    -4.2333    84.5929   117.1775 </r>
       <r>    -4.1835    88.0184   121.5643 </r>
       <r>    -4.1336    93.5084   126.2246 </r>
       <r>    -4.0838   103.3167   131.3739 </r>
       <r>    -4.0339   114.3907   137.0750 </r>
       <r>    -3.9841   117.6379   142.9380 </r>
       <r>    -3.9343   112.5000   148.5449 </r>
       <r>    -3.8844   108.5684   153.9559 </r>
       <r>    -3.8346   108.9158   159.3841 </r>
       <r>    -3.7848   107.6643   164.7500 </r>
       <r>    -3.7349   103.3157   169.8992 </r>
       <r>    -3.6851   100.9403   174.9300 </r>
       <r>    -3.6352   102.6824   180.0476 </r>
       <r>    -3.5854   104.1386   185.2378 </r>
       <r>    -3.5356   102.3843   190.3406 </r>
       <r>    -3.4857   100.7034   195.3595 </r>
       <r>    -3.4359   102.6134   200.4737 </r>
       <r>    -3.3860   107.4206   205.8275 </r>
       <r>    -3.3362   111.2947   211.3743 </r>
       <r>    -3.2864   110.8615   216.8996 </r>
       <r>    -3.2365   107.0460   222.2346 </r>
       <r>    -3.1867   104.4347   227.4396 </r>
       <r>    -3.1368   104.7566   232.6606 </r>
       <r>    -3.0870   105.6426   237.9257 </r>
       <r>    -3.0372   107.5852   243.2877 </r>
       <r>    -2.9873   111.5301   248.8463 </r>
       <r>    -2.9375   114.2144   254.5386 </r>
       <r>    -2.8876   115.2825   260.2842 </r>
       <r>    -2.8378   118.2328   266.1768 </r>
       <r>    -2.7880   124.4156   272.3776 </r>
       <r>    -2.7381   132.4829   278.9805 </r>
       <r>    -2.6883   136.9734   285.8071 </r>
       <r>    -2.6384   132.7383   292.4227 </r>
       <r>    -2.5886   124.9219   298.6487 </r>
       <r>    -2.5388   121.2792   304.6931 </r>
       <r>    -2.4889   119.5992   310.6539 </r>
       <r>    -2.4391   112.6320   316.2674 </r>
       <r>    -2.3893    96.4918   321.0764 </r>
       <r>    -2.3394    72.9616   324.7128 </r>
       <r>    -2.2896    48.2434   327.1172 </r>
       <r>    -2.2397    28.4882   328.5370 </r>
       <r>    -2.1899    16.8120   329.3749 </r>
       <r>    -2.1401    12.7417   330.0100 </r>
       <r>    -2.0902    13.2790   330.6718 </r>
       <r>    -2.0404    14.7359   331.4062 </r>
       <r>    -1.9905    13.6232   332.0852 </r>
       <r>    -1.9407     9.5817   332.5627 </r>
       <r>    -1.8909     6.2108   332.8723 </r>
       <r>    -1.8410     5.8525   333.1639 </r>
       <r>    -1.7912     7.1161   333.5186 </r>
       <r>    -1.7413     7.7829   333.9065 </r>
       <r>    -1.6915     7.3656   334.2736 </r>
       <r>    -1.6417     6.8436   334.6147 </r>
       <r>    -1.5918     6.9485   334.9610 </r>
       <r>    -1.5420     7.7796   335.3487 </r>
       <r>    -1.4921     8.7521   335.7849 </r>
       <r>    -1.4423     9.1049   336.2387 </r>
       <r>    -1.3925     9.0905   336.6918 </r>
       <r>    -1.3426     8.6694   337.1238 </r>
       <r>    -1.2928     7.3209   337.4887 </r>
       <r>    -1.2430     6.2482   337.8001 </r>
       <r>    -1.1931     7.1734   338.1576 </r>
       <r>    -1.1433     8.8329   338.5978 </r>
       <r>    -1.0934     8.5625   339.0246 </r>
       <r>    -1.0436     7.0078   339.3739 </r>
       <r>    -0.9938     6.5937   339.7025 </r>
       <r>    -0.9439     7.3369   340.0681 </r>
       <r>    -0.8941     7.6431   340.4491 </r>
       <r>    -0.8442     7.1262   340.8042 </r>
       <r>    -0.7944     6.6614   341.1362 </r>
       <r>    -0.7446     6.6112   341.4657 </r>
       <r>    -0.6947     6.9576   341.8125 </r>
       <r>    -0.6449     7.5690   342.1897 </r>
       <r>    -0.5950     7.6407   342.5705 </r>
       <r>    -0.5452     6.9897   342.9189 </r>
       <r>    -0.4954     6.9040   343.2630 </r>
       <r>    -0.4455     8.0952   343.6664 </r>
       <r>    -0.3957     9.8721   344.1585 </r>
       <r>    -0.3458    11.3750   344.7254 </r>
       <r>    -0.2960    11.3188   345.2895 </r>
       <r>    -0.2462     9.1401   345.7450 </r>
       <r>    -0.1963     6.8954   346.0887 </r>
       <r>    -0.1465     6.3852   346.4069 </r>
       <r>    -0.0966     6.3885   346.7253 </r>
       <r>    -0.0468     5.6696   347.0079 </r>
       <r>     0.0030     5.1426   347.2642 </r>
       <r>     0.0529     5.5994   347.5433 </r>
       <r>     0.1027     6.7742   347.8809 </r>
       <r>     0.1525     8.1747   348.2883 </r>
       <r>     0.2024     9.5445   348.7640 </r>
       <r>     0.2522    10.8781   349.3062 </r>
       <r>     0.3021    11.6561   349.8871 </r>
       <r>     0.3519    11.6219   350.4663 </r>
       <r>     0.4017    11.4549   351.0372 </r>
       <r>     0.4516    11.0152   351.5862 </r>
       <r>     0.5014     9.7144   352.0704 </r>
       <r>     0.5513     7.8538   352.4618 </r>
       <r>     0.6011     5.7701   352.7494 </r>
       <r>     0.6509     3.8535   352.9414 </r>
       <r>     0.7008     3.2116   353.1015 </r>
       <r>     0.7506     4.5089   353.3262 </r>
       <r>     0.8005     7.2709   353.6886 </r>
       <r>     0.8503    11.1609   354.2448 </r>
       <r>     0.9001    15.5068   355.0177 </r>
       <r>     0.9500    17.8591   355.9078 </r>
       <r>     0.9998    16.9975   356.7549 </r>
       <r>     1.0497    14.9637   357.5007 </r>
       <r>     1.0995    13.2082   358.1590 </r>
       <r>     1.1493    11.3405   358.7242 </r>
       <r>     1.1992     9.2832   359.1868 </r>
       <r>     1.2490     7.3022   359.5508 </r>
       <r>     1.2988     6.5021   359.8748 </r>
       <r>     1.3487     8.1980   360.2834 </r>
       <r>     1.3985    10.9882   360.8311 </r>
       <r>     1.4484    12.3930   361.4487 </r>
       <r>     1.4982    12.2826   362.0609 </r>
       <r>     1.5480    11.0414   362.6112 </r>
       <r>     1.5979     8.6557   363.0426 </r>
       <r>     1.6477     6.8500   363.3840 </r>
       <r>     1.6976     7.1071   363.7382 </r>
       <r>     1.7474     8.1524   364.1445 </r>
       <r>     1.7972     8.4651   364.5664 </r>
       <r>     1.8471     8.1859   364.9744 </r>
       <r>     1.8969     7.7044   365.3583 </r>
       <r>     1.9468     7.1688   365.7156 </r>
       <r>     1.9966     7.2838   366.0786 </r>
       <r>     2.0464     9.0446   366.5294 </r>
       <r>     2.0963    12.2923   367.1421 </r>
       <r>     2.1461    15.2040   367.8998 </r>
       <r>     2.1960    15.7097   368.6828 </r>
       <r>     2.2458    14.0182   369.3814 </r>
       <r>     2.2956    12.4392   370.0014 </r>
       <r>     2.3455    11.4638   370.5727 </r>
       <r>     2.3953     9.6484   371.0536 </r>
       <r>     2.4452     7.0200   371.4035 </r>
       <r>     2.4950     4.8794   371.6467 </r>
       <r>     2.5448     4.2320   371.8576 </r>
       <r>     2.5947     6.0128   372.1573 </r>
       <r>     2.6445    10.6683   372.6890 </r>
       <r>     2.6943    15.9259   373.4827 </r>
       <r>     2.7442    17.3569   374.3478 </r>
       <r>     2.7940    13.6699   375.0290 </r>
       <r>     2.8439     8.9021   375.4727 </r>
       <r>     2.8937     7.6928   375.8561 </r>
       <r>     2.9435    10.3180   376.3704 </r>
       <r>     2.9934    13.1783   377.0272 </r>
       <r>     3.0432    13.1860   377.6843 </r>
       <r>     3.0931    10.7728   378.2212 </r>
       <r>     3.1429     8.5303   378.6464 </r>
       <r>     3.1927     7.9186   379.0410 </r>
       <r>     3.2426     8.3822   379.4588 </r>
       <r>     3.2924     9.1907   379.9169 </r>
       <r>     3.3423    10.2222   380.4263 </r>
       <r>     3.3921    11.0717   380.9781 </r>
       <r>     3.4419    10.9093   381.5218 </r>
       <r>     3.4918     9.5375   381.9972 </r>
       <r>     3.5416     8.0644   382.3991 </r>
       <r>     3.5915     7.8287   382.7893 </r>
       <r>     3.6413     9.1979   383.2477 </r>
       <r>     3.6911    12.1134   383.8514 </r>
       <r>     3.7410    16.4343   384.6705 </r>
       <r>     3.7908    20.6365   385.6990 </r>
       <r>     3.8406    22.2663   386.8087 </r>
       <r>     3.8905    20.8039   387.8456 </r>
       <r>     3.9403    17.7576   388.7306 </r>
       <r>     3.9902    14.3152   389.4441 </r>
       <r>     4.0400    11.2355   390.0040 </r>
       <r>     4.0898     9.8806   390.4965 </r>
       <r>     4.1397    11.8709   391.0881 </r>
       <r>     4.1895    16.7210   391.9215 </r>
       <r>     4.2394    19.5794   392.8973 </r>
       <r>     4.2892    16.4506   393.7172 </r>
       <r>     4.3390    10.5697   394.2440 </r>
       <r>     4.3889     7.2422   394.6049 </r>
       <r>     4.4387     7.3088   394.9692 </r>
       <r>     4.4886     8.8731   395.4114 </r>
       <r>     4.5384    10.5261   395.9360 </r>
       <r>     4.5882    12.3026   396.5492 </r>
       <r>     4.6381    14.7895   397.2863 </r>
       <r>     4.6879    17.4616   398.1566 </r>
       <r>     4.7378    18.5802   399.0826 </r>
       <r>     4.7876    17.8107   399.9702 </r>
       <r>     4.8374    17.1741   400.8262 </r>
       <r>     4.8873    16.9846   401.6727 </r>
       <r>     4.9371    15.3916   402.4398 </r>
       <r>     4.9870    12.9705   403.0862 </r>
       <r>     5.0368    11.8604   403.6773 </r>
       <r>     5.0866    12.4206   404.2964 </r>
       <r>     5.1365    14.1289   405.0005 </r>
       <r>     5.1863    16.3919   405.8175 </r>
       <r>     5.2361    18.1316   406.7212 </r>
       <r>     5.2860    17.5775   407.5972 </r>
       <r>     5.3358    13.4835   408.2692 </r>
       <r>     5.3857     8.2651   408.6812 </r>
       <r>     5.4355     6.1970   408.9900 </r>
       <r>     5.4853     8.2749   409.4024 </r>
       <r>     5.5352    12.2456   410.0127 </r>
       <r>     5.5850    15.5510   410.7878 </r>
       <r>     5.6349    16.9632   411.6332 </r>
       <r>     5.6847    17.3501   412.4979 </r>
       <r>     5.7345    18.1076   413.4004 </r>
       <r>     5.7844    18.6938   414.3321 </r>
       <r>     5.8342    18.2655   415.2424 </r>
       <r>     5.8841    18.1638   416.1477 </r>
       <r>     5.9339    19.4182   417.1155 </r>
       <r>     5.9837    20.8422   418.1542 </r>
       <r>     6.0336    21.2911   419.2154 </r>
       <r>     6.0834    19.7067   420.1975 </r>
       <r>     6.1333    15.1935   420.9548 </r>
       <r>     6.1831     9.6075   421.4336 </r>
       <r>     6.2329     5.6361   421.7145 </r>
       <r>     6.2828     3.3214   421.8800 </r>
       <r>     6.3326     1.6657   421.9631 </r>
       <r>     6.3824     0.5871   421.9923 </r>
       <r>     6.4323     0.1334   421.9990 </r>
       <r>     6.4821     0.0190   421.9999 </r>
       <r>     6.5320     0.0017   422.0000 </r>
       <r>     6.5818     0.0001   422.0000 </r>
       <r>     6.6316     0.0000   422.0000 </r>
       <r>     6.6815     0.0000   422.0000 </r>
       <r>     6.7313     0.0000   422.0000 </r>
       <r>     6.7812     0.0000   422.0000 </r>
       <r>     6.8310     0.0000   422.0000 </r>
       <r>     6.8808     0.0000   422.0000 </r>
       <r>     6.9307     0.0000   422.0000 </r>
       <r>     6.9805     0.0000   422.0000 </r>
       <r>     7.0304     0.0000   422.0000 </r>
       <r>     7.0802     0.0000   422.0000 </r>
       <r>     7.1300     0.0000   422.0000 </r>
       <r>     7.1799     0.0000   422.0000 </r>
       <r>     7.2297     0.0000   422.0000 </r>
      </set>
     </set>
    </array>
   </total>
  </dos>
 </calculation>
 <structure name="finalpos" >
  <crystal>
   <varray name="basis" >
    <v>      11.52301211       0.00000000       0.00000000 </v>
    <v>       0.00000000      11.52301211       0.00000000 </v>
    <v>       0.00000000       0.00000000      22.11100000 </v>
   </varray>
   <i name="volume">   2935.89433469 </i>
   <varray name="rec_basis" >
    <v>       0.08678286       0.00000000       0.00000000 </v>
    <v>       0.00000000       0.08678286       0.00000000 </v>
    <v>       0.00000000       0.00000000       0.04522636 </v>
   </varray>
  </crystal>
  <varray name="positions" >
   <v>       0.12500000       0.12500000       0.00000000 </v>
   <v>       0.37500000       0.12500000       0.00000000 </v>
   <v>       0.62500000       0.12500000       0.00000000 </v>
   <v>       0.87500000       0.12500000       0.00000000 </v>
   <v>       0.12500000       0.37500000       0.00000000 </v>
   <v>       0.37500000       0.37500000       0.00000000 </v>
   <v>       0.62500000       0.37500000       0.00000000 </v>
   <v>       0.87500000       0.37500000       0.00000000 </v>
   <v>       0.12500000       0.62500000       0.00000000 </v>
   <v>       0.37500000       0.62500000       0.00000000 </v>
   <v>       0.62500000       0.62500000       0.00000000 </v>
   <v>       0.87500000       0.62500000       0.00000000 </v>
   <v>       0.12500000       0.87500000       0.00000000 </v>
   <v>       0.37500000       0.87500000       0.00000000 </v>
   <v>       0.62500000       0.87500000       0.00000000 </v>
   <v>       0.87500000       0.87500000       0.00000000 </v>
   <v>       0.00000000       0.00000000       0.09212609 </v>
   <v>       0.25000000       0.00000000       0.09212609 </v>
   <v>       0.50000000       0.00000000       0.09212609 </v>
   <v>       0.75000000       0.00000000       0.09212609 </v>
   <v>       0.00000000       0.25000000       0.09212609 </v>
   <v>       0.25000000       0.25000000       0.09212609 </v>
   <v>       0.50000000       0.25000000       0.09212609 </v>
   <v>       0.75000000       0.25000000       0.09212609 </v>
   <v>       0.00000000       0.50000000       0.09212609 </v>
   <v>       0.25000000       0.50000000       0.09212609 </v>
   <v>       0.50000000       0.50000000       0.09212609 </v>
   <v>       0.75000000       0.50000000       0.09212609 </v>
   <v>       0.00000000       0.75000000       0.09212609 </v>
   <v>       0.25000000       0.75000000       0.09212609 </v>
   <v>       0.50000000       0.75000000       0.09212609 </v>
   <v>       0.75000000       0.75000000       0.09212609 </v>
   <v>       0.12500000       0.12500000       0.18526245 </v>
   <v>       0.37500000       0.12500000       0.18526245 </v>
   <v>       0.62500000       0.12500000       0.18526245 </v>
   <v>       0.87500000       0.12500000       0.18526245 </v>
   <v>       0.12500000       0.37500000       0.18526245 </v>
   <v>       0.37500000       0.37500000       0.18526245 </v>
   <v>       0.62500000       0.37500000       0.18526245 </v>
   <v>       0.87500000       0.37500000       0.18526245 </v>
   <v>       0.12500000       0.62500000       0.18526245 </v>
   <v>       0.37500000       0.62500000       0.18526245 </v>
   <v>       0.62500000       0.62500000       0.18526245 </v>
   <v>       0.87500000       0.62500000       0.18526245 </v>
   <v>       0.12500000       0.87500000       0.18526245 </v>
   <v>       0.37500000       0.87500000       0.18526245 </v>
   <v>       0.62500000       0.87500000       0.18526245 </v>
   <v>       0.87500000       0.87500000       0.18526245 </v>
   <v>      -0.00000000       0.00000000       0.27779584 </v>
   <v>       0.25000000       0.00000000       0.27779584 </v>
   <v>       0.50000000       0.00000000       0.27779584 </v>
   <v>       0.75000000       0.00000000       0.27779584 </v>
   <v>      -0.00000000       0.25000000       0.27779584 </v>
   <v>       0.25000000       0.25000000       0.27779584 </v>
   <v>       0.50000000       0.25000000       0.27779584 </v>
   <v>       0.75000000       0.25000000       0.27779584 </v>
   <v>      -0.00000000       0.50000000       0.27779584 </v>
   <v>       0.25000000       0.50000000       0.27779584 </v>
   <v>       0.50000000       0.50000000       0.27779584 </v>
   <v>       0.75000000       0.50000000       0.27779584 </v>
   <v>      -0.00000000       0.75000000       0.27779584 </v>
   <v>       0.25000000       0.75000000       0.27779584 </v>
   <v>       0.50000000       0.75000000       0.27779584 </v>
   <v>       0.75000000       0.75000000       0.27779584 </v>
  </varray>
  <varray name="selective"  type="logical" >
   <v type="logical" >  F  F  F </v>
   <v type="logical" >  F  F  F </v>
   <v type="logical" >  F  F  F </v>
   <v type="logical" >  F  F  F </v>
   <v type="logical" >  F  F  F </v>
   <v type="logical" >  F  F  F </v>
   <v type="logical" >  F  F  F </v>
   <v type="logical" >  F  F  F </v>
   <v type="logical" >  F  F  F </v>
   <v type="logical" >  F  F  F </v>
   <v type="logical" >  F  F  F </v>
   <v type="logical" >  F  F  F </v>
   <v type="logical" >  F  F  F </v>
   <v type="logical" >  F  F  F </v>
   <v type="logical" >  F  F  F </v>
   <v type="logical" >  F  F  F </v>
   <v type="logical" >  F  F  F </v>
   <v type="logical" >  F  F  F </v>
   <v type="logical" >  F  F  F </v>
   <v type="logical" >  F  F  F </v>
   <v type="logical" >  F  F  F </v>
   <v type="logical" >  F  F  F </v>
   <v type="logical" >  F  F  F </v>
   <v type="logical" >  F  F  F </v>
   <v type="logical" >  F  F  F </v>
   <v type="logical" >  F  F  F </v>
   <v type="logical" >  F  F  F </v>
   <v type="logical" >  F  F  F </v>
   <v type="logical" >  F  F  F </v>
   <v type="logical" >  F  F  F </v>
   <v type="logical" >  F  F  F </v>
   <v type="logical" >  F  F  F </v>
   <v type="logical" >  T  T  T </v>
   <v type="logical" >  T  T  T </v>
   <v type="logical" >  T  T  T </v>
   <v type="logical" >  T  T  T </v>
   <v type="logical" >  T  T  T </v>
   <v type="logical" >  T  T  T </v>
   <v type="logical" >  T  T  T </v>
   <v type="logical" >  T  T  T </v>
   <v type="logical" >  T  T  T </v>
   <v type="logical" >  T  T  T </v>
   <v type="logical" >  T  T  T </v>
   <v type="logical" >  T  T  T </v>
   <v type="logical" >  T  T  T </v>
   <v type="logical" >  T  T  T </v>
   <v type="logical" >  T  T  T </v>
   <v type="logical" >  T  T  T </v>
   <v type="logical" >  T  T  T </v>
   <v type="logical" >  T  T  T </v>
   <v type="logical" >  T  T  T </v>
   <v type="logical" >  T  T  T </v>
   <v type="logical" >  T  T  T </v>
   <v type="logical" >  T  T  T </v>
   <v type="logical" >  T  T  T </v>
   <v type="logical" >  T  T  T </v>
   <v type="logical" >  T  T  T </v>
   <v type="logical" >  T  T  T </v>
   <v type="logical" >  T  T  T </v>
   <v type="logical" >  T  T  T </v>
   <v type="logical" >  T  T  T </v>
   <v type="logical" >  T  T  T </v>
   <v type="logical" >  T  T  T </v>
   <v type="logical" >  T  T  T </v>
  </varray>
  <nose>
   <v>      -3.00000000       0.00000000       0.00010000       0.00010000 </v>
  </nose>
 </structure>
</modeling>
