CatImpurities                           
           1
    11.523012    0.000000    0.000000
     0.000000   11.523012    0.000000
     0.000000    0.000000   22.111000
   Ag
  64
Direct configuration=     1
   0.12500000  0.12500000  0.00000000
   0.37500000  0.12500000  0.00000000
   0.62500000  0.12500000  0.00000000
   0.87500000  0.12500000  0.00000000
   0.12500000  0.37500000  0.00000000
   0.37500000  0.37500000  0.00000000
   0.62500000  0.37500000  0.00000000
   0.87500000  0.37500000  0.00000000
   0.12500000  0.62500000  0.00000000
   0.37500000  0.62500000  0.00000000
   0.62500000  0.62500000  0.00000000
   0.87500000  0.62500000  0.00000000
   0.12500000  0.87500000  0.00000000
   0.37500000  0.87500000  0.00000000
   0.62500000  0.87500000  0.00000000
   0.87500000  0.87500000  0.00000000
   0.00000000  0.00000000  0.09212609
   0.25000000  0.00000000  0.09212609
   0.50000000  0.00000000  0.09212609
   0.75000000  0.00000000  0.09212609
   0.00000000  0.25000000  0.09212609
   0.25000000  0.25000000  0.09212609
   0.50000000  0.25000000  0.09212609
   0.75000000  0.25000000  0.09212609
   0.00000000  0.50000000  0.09212609
   0.25000000  0.50000000  0.09212609
   0.50000000  0.50000000  0.09212609
   0.75000000  0.50000000  0.09212609
   0.00000000  0.75000000  0.09212609
   0.25000000  0.75000000  0.09212609
   0.50000000  0.75000000  0.09212609
   0.75000000  0.75000000  0.09212609
   0.12500000  0.12500000  0.18429433
   0.37500000  0.12500000  0.18429433
   0.62500000  0.12500000  0.18429433
   0.87500000  0.12500000  0.18429433
   0.12500000  0.37500000  0.18429433
   0.37500000  0.37500000  0.18429433
   0.62500000  0.37500000  0.18429433
   0.87500000  0.37500000  0.18429433
   0.12500000  0.62500000  0.18429433
   0.37500000  0.62500000  0.18429433
   0.62500000  0.62500000  0.18429433
   0.87500000  0.62500000  0.18429433
   0.12500000  0.87500000  0.18429433
   0.37500000  0.87500000  0.18429433
   0.62500000  0.87500000  0.18429433
   0.87500000  0.87500000  0.18429433
  -0.00000000  0.00000000  0.27641595
   0.25000000  0.00000000  0.27641595
   0.50000000  0.00000000  0.27641595
   0.75000000  0.00000000  0.27641595
   0.00000000  0.25000000  0.27641595
   0.25000000  0.25000000  0.27641595
   0.50000000  0.25000000  0.27641595
   0.75000000  0.25000000  0.27641595
   0.00000000  0.50000000  0.27641595
   0.25000000  0.50000000  0.27641595
   0.50000000  0.50000000  0.27641595
   0.75000000  0.50000000  0.27641595
   0.00000000  0.75000000  0.27641595
   0.25000000  0.75000000  0.27641595
   0.50000000  0.75000000  0.27641595
   0.75000000  0.75000000  0.27641595
Direct configuration=     2
   0.12500000  0.12500000  0.00000000
   0.37500000  0.12500000  0.00000000
   0.62500000  0.12500000  0.00000000
   0.87500000  0.12500000  0.00000000
   0.12500000  0.37500000  0.00000000
   0.37500000  0.37500000  0.00000000
   0.62500000  0.37500000  0.00000000
   0.87500000  0.37500000  0.00000000
   0.12500000  0.62500000  0.00000000
   0.37500000  0.62500000  0.00000000
   0.62500000  0.62500000  0.00000000
   0.87500000  0.62500000  0.00000000
   0.12500000  0.87500000  0.00000000
   0.37500000  0.87500000  0.00000000
   0.62500000  0.87500000  0.00000000
   0.87500000  0.87500000  0.00000000
   0.00000000  0.00000000  0.09212609
   0.25000000  0.00000000  0.09212609
   0.50000000  0.00000000  0.09212609
   0.75000000  0.00000000  0.09212609
   0.00000000  0.25000000  0.09212609
   0.25000000  0.25000000  0.09212609
   0.50000000  0.25000000  0.09212609
   0.75000000  0.25000000  0.09212609
   0.00000000  0.50000000  0.09212609
   0.25000000  0.50000000  0.09212609
   0.50000000  0.50000000  0.09212609
   0.75000000  0.50000000  0.09212609
   0.00000000  0.75000000  0.09212609
   0.25000000  0.75000000  0.09212609
   0.50000000  0.75000000  0.09212609
   0.75000000  0.75000000  0.09212609
   0.12500000  0.12500000  0.18459503
   0.37500000  0.12500000  0.18459503
   0.62500000  0.12500000  0.18459503
   0.87500000  0.12500000  0.18459503
   0.12500000  0.37500000  0.18459503
   0.37500000  0.37500000  0.18459503
   0.62500000  0.37500000  0.18459503
   0.87500000  0.37500000  0.18459503
   0.12500000  0.62500000  0.18459503
   0.37500000  0.62500000  0.18459503
   0.62500000  0.62500000  0.18459503
   0.87500000  0.62500000  0.18459503
   0.12500000  0.87500000  0.18459503
   0.37500000  0.87500000  0.18459503
   0.62500000  0.87500000  0.18459503
   0.87500000  0.87500000  0.18459503
  -0.00000000  0.00000000  0.27670879
   0.25000000  0.00000000  0.27670879
   0.50000000 -0.00000000  0.27670879
   0.75000000  0.00000000  0.27670879
   0.00000000  0.25000000  0.27670879
   0.25000000  0.25000000  0.27670879
   0.50000000  0.25000000  0.27670879
   0.75000000  0.25000000  0.27670879
   0.00000000  0.50000000  0.27670879
   0.25000000  0.50000000  0.27670879
   0.50000000  0.50000000  0.27670879
   0.75000000  0.50000000  0.27670879
   0.00000000  0.75000000  0.27670879
   0.25000000  0.75000000  0.27670879
   0.50000000  0.75000000  0.27670879
   0.75000000  0.75000000  0.27670879
Direct configuration=     3
   0.12500000  0.12500000  0.00000000
   0.37500000  0.12500000  0.00000000
   0.62500000  0.12500000  0.00000000
   0.87500000  0.12500000  0.00000000
   0.12500000  0.37500000  0.00000000
   0.37500000  0.37500000  0.00000000
   0.62500000  0.37500000  0.00000000
   0.87500000  0.37500000  0.00000000
   0.12500000  0.62500000  0.00000000
   0.37500000  0.62500000  0.00000000
   0.62500000  0.62500000  0.00000000
   0.87500000  0.62500000  0.00000000
   0.12500000  0.87500000  0.00000000
   0.37500000  0.87500000  0.00000000
   0.62500000  0.87500000  0.00000000
   0.87500000  0.87500000  0.00000000
   0.00000000  0.00000000  0.09212609
   0.25000000  0.00000000  0.09212609
   0.50000000  0.00000000  0.09212609
   0.75000000  0.00000000  0.09212609
   0.00000000  0.25000000  0.09212609
   0.25000000  0.25000000  0.09212609
   0.50000000  0.25000000  0.09212609
   0.75000000  0.25000000  0.09212609
   0.00000000  0.50000000  0.09212609
   0.25000000  0.50000000  0.09212609
   0.50000000  0.50000000  0.09212609
   0.75000000  0.50000000  0.09212609
   0.00000000  0.75000000  0.09212609
   0.25000000  0.75000000  0.09212609
   0.50000000  0.75000000  0.09212609
   0.75000000  0.75000000  0.09212609
   0.12500000  0.12500000  0.18511685
   0.37500000  0.12500000  0.18511685
   0.62500000  0.12500000  0.18511685
   0.87500000  0.12500000  0.18511685
   0.12500000  0.37500000  0.18511685
   0.37500000  0.37500000  0.18511685
   0.62500000  0.37500000  0.18511685
   0.87500000  0.37500000  0.18511685
   0.12500000  0.62500000  0.18511685
   0.37500000  0.62500000  0.18511685
   0.62500000  0.62500000  0.18511685
   0.87500000  0.62500000  0.18511685
   0.12500000  0.87500000  0.18511685
   0.37500000  0.87500000  0.18511685
   0.62500000  0.87500000  0.18511685
   0.87500000  0.87500000  0.18511685
  -0.00000000  0.00000000  0.27795608
   0.25000000  0.00000000  0.27795608
   0.50000000  0.00000000  0.27795608
   0.75000000  0.00000000  0.27795608
  -0.00000000  0.25000000  0.27795608
   0.25000000  0.25000000  0.27795608
   0.50000000  0.25000000  0.27795608
   0.75000000  0.25000000  0.27795608
  -0.00000000  0.50000000  0.27795608
   0.25000000  0.50000000  0.27795608
   0.50000000  0.50000000  0.27795608
   0.75000000  0.50000000  0.27795608
  -0.00000000  0.75000000  0.27795608
   0.25000000  0.75000000  0.27795608
   0.50000000  0.75000000  0.27795608
   0.75000000  0.75000000  0.27795608
Direct configuration=     4
   0.12500000  0.12500000  0.00000000
   0.37500000  0.12500000  0.00000000
   0.62500000  0.12500000  0.00000000
   0.87500000  0.12500000  0.00000000
   0.12500000  0.37500000  0.00000000
   0.37500000  0.37500000  0.00000000
   0.62500000  0.37500000  0.00000000
   0.87500000  0.37500000  0.00000000
   0.12500000  0.62500000  0.00000000
   0.37500000  0.62500000  0.00000000
   0.62500000  0.62500000  0.00000000
   0.87500000  0.62500000  0.00000000
   0.12500000  0.87500000  0.00000000
   0.37500000  0.87500000  0.00000000
   0.62500000  0.87500000  0.00000000
   0.87500000  0.87500000  0.00000000
   0.00000000  0.00000000  0.09212609
   0.25000000  0.00000000  0.09212609
   0.50000000  0.00000000  0.09212609
   0.75000000  0.00000000  0.09212609
   0.00000000  0.25000000  0.09212609
   0.25000000  0.25000000  0.09212609
   0.50000000  0.25000000  0.09212609
   0.75000000  0.25000000  0.09212609
   0.00000000  0.50000000  0.09212609
   0.25000000  0.50000000  0.09212609
   0.50000000  0.50000000  0.09212609
   0.75000000  0.50000000  0.09212609
   0.00000000  0.75000000  0.09212609
   0.25000000  0.75000000  0.09212609
   0.50000000  0.75000000  0.09212609
   0.75000000  0.75000000  0.09212609
   0.12500000  0.12500000  0.18526245
   0.37500000  0.12500000  0.18526245
   0.62500000  0.12500000  0.18526245
   0.87500000  0.12500000  0.18526245
   0.12500000  0.37500000  0.18526245
   0.37500000  0.37500000  0.18526245
   0.62500000  0.37500000  0.18526245
   0.87500000  0.37500000  0.18526245
   0.12500000  0.62500000  0.18526245
   0.37500000  0.62500000  0.18526245
   0.62500000  0.62500000  0.18526245
   0.87500000  0.62500000  0.18526245
   0.12500000  0.87500000  0.18526245
   0.37500000  0.87500000  0.18526245
   0.62500000  0.87500000  0.18526245
   0.87500000  0.87500000  0.18526245
  -0.00000000  0.00000000  0.27779584
   0.25000000  0.00000000  0.27779584
   0.50000000  0.00000000  0.27779584
   0.75000000  0.00000000  0.27779584
  -0.00000000  0.25000000  0.27779584
   0.25000000  0.25000000  0.27779584
   0.50000000  0.25000000  0.27779584
   0.75000000  0.25000000  0.27779584
  -0.00000000  0.50000000  0.27779584
   0.25000000  0.50000000  0.27779584
   0.50000000  0.50000000  0.27779584
   0.75000000  0.50000000  0.27779584
  -0.00000000  0.75000000  0.27779584
   0.25000000  0.75000000  0.27779584
   0.50000000  0.75000000  0.27779584
   0.75000000  0.75000000  0.27779584
Direct configuration=     5
   0.12500000  0.12500000  0.00000000
   0.37500000  0.12500000  0.00000000
   0.62500000  0.12500000  0.00000000
   0.87500000  0.12500000  0.00000000
   0.12500000  0.37500000  0.00000000
   0.37500000  0.37500000  0.00000000
   0.62500000  0.37500000  0.00000000
   0.87500000  0.37500000  0.00000000
   0.12500000  0.62500000  0.00000000
   0.37500000  0.62500000  0.00000000
   0.62500000  0.62500000  0.00000000
   0.87500000  0.62500000  0.00000000
   0.12500000  0.87500000  0.00000000
   0.37500000  0.87500000  0.00000000
   0.62500000  0.87500000  0.00000000
   0.87500000  0.87500000  0.00000000
   0.00000000  0.00000000  0.09212609
   0.25000000  0.00000000  0.09212609
   0.50000000  0.00000000  0.09212609
   0.75000000  0.00000000  0.09212609
   0.00000000  0.25000000  0.09212609
   0.25000000  0.25000000  0.09212609
   0.50000000  0.25000000  0.09212609
   0.75000000  0.25000000  0.09212609
   0.00000000  0.50000000  0.09212609
   0.25000000  0.50000000  0.09212609
   0.50000000  0.50000000  0.09212609
   0.75000000  0.50000000  0.09212609
   0.00000000  0.75000000  0.09212609
   0.25000000  0.75000000  0.09212609
   0.50000000  0.75000000  0.09212609
   0.75000000  0.75000000  0.09212609
   0.12500000  0.12500000  0.18526245
   0.37500000  0.12500000  0.18526245
   0.62500000  0.12500000  0.18526245
   0.87500000  0.12500000  0.18526245
   0.12500000  0.37500000  0.18526245
   0.37500000  0.37500000  0.18526245
   0.62500000  0.37500000  0.18526245
   0.87500000  0.37500000  0.18526245
   0.12500000  0.62500000  0.18526245
   0.37500000  0.62500000  0.18526245
   0.62500000  0.62500000  0.18526245
   0.87500000  0.62500000  0.18526245
   0.12500000  0.87500000  0.18526245
   0.37500000  0.87500000  0.18526245
   0.62500000  0.87500000  0.18526245
   0.87500000  0.87500000  0.18526245
  -0.00000000  0.00000000  0.27779584
   0.25000000  0.00000000  0.27779584
   0.50000000  0.00000000  0.27779584
   0.75000000  0.00000000  0.27779584
  -0.00000000  0.25000000  0.27779584
   0.25000000  0.25000000  0.27779584
   0.50000000  0.25000000  0.27779584
   0.75000000  0.25000000  0.27779584
  -0.00000000  0.50000000  0.27779584
   0.25000000  0.50000000  0.27779584
   0.50000000  0.50000000  0.27779584
   0.75000000  0.50000000  0.27779584
  -0.00000000  0.75000000  0.27779584
   0.25000000  0.75000000  0.27779584
   0.50000000  0.75000000  0.27779584
   0.75000000  0.75000000  0.27779584
