       N       E                     dE             d eps       ncg     rms          rms(c)
DAV:   1     0.629133271169E+04    0.62913E+04   -0.34715E+05  4272   0.129E+03
DAV:   2     0.446856953179E+02   -0.62466E+04   -0.57731E+04  5256   0.277E+02
DAV:   3    -0.452064279108E+03   -0.49675E+03   -0.44907E+03  4836   0.747E+01
DAV:   4    -0.473632933756E+03   -0.21569E+02   -0.19958E+02  5376   0.148E+01
DAV:   5    -0.474209535644E+03   -0.57660E+00   -0.57016E+00  5616   0.259E+00    0.653E+01
DAV:   6    -0.454046258361E+03    0.20163E+02   -0.72379E+01  4584   0.148E+01    0.337E+01
DAV:   7    -0.508633663447E+03   -0.54587E+02   -0.67731E+01  4794   0.377E+01    0.716E+01
DAV:   8    -0.522946551695E+03   -0.14313E+02   -0.87059E+01  5448   0.383E+01    0.686E+01
DAV:   9    -0.461556844613E+03    0.61390E+02   -0.45909E+01  5772   0.314E+01    0.352E+01
DAV:  10    -0.461399306228E+03    0.15754E+00   -0.35906E+01  4914   0.231E+01    0.271E+01
DAV:  11    -0.461049970027E+03    0.34934E+00   -0.17527E+01  4830   0.163E+01    0.280E+01
DAV:  12    -0.454408616357E+03    0.66414E+01   -0.72044E+00  4728   0.113E+01    0.164E+01
DAV:  13    -0.453207428555E+03    0.12012E+01   -0.32493E+00  4668   0.589E+00    0.139E+01
DAV:  14    -0.452441352111E+03    0.76608E+00   -0.23550E+00  4734   0.509E+00    0.118E+01
DAV:  15    -0.451501661888E+03    0.93969E+00   -0.15372E+00  4758   0.414E+00    0.671E+00
DAV:  16    -0.451297579783E+03    0.20408E+00   -0.88412E-01  4758   0.278E+00    0.540E+00
DAV:  17    -0.451162288582E+03    0.13529E+00   -0.32964E-01  4764   0.185E+00    0.366E+00
DAV:  18    -0.451115496395E+03    0.46792E-01   -0.93065E-02  4614   0.963E-01    0.298E+00
DAV:  19    -0.451120799610E+03   -0.53032E-02   -0.85068E-02  4698   0.873E-01    0.330E+00
DAV:  20    -0.451080060188E+03    0.40739E-01   -0.11614E-01  4722   0.107E+00    0.276E+00
DAV:  21    -0.451089150355E+03   -0.90902E-02   -0.18352E-01  4848   0.140E+00    0.341E+00
DAV:  22    -0.451052923489E+03    0.36227E-01   -0.15300E-01  4710   0.118E+00    0.251E+00
DAV:  23    -0.451021300997E+03    0.31622E-01   -0.54239E-02  4752   0.738E-01    0.141E+00
DAV:  24    -0.451014529508E+03    0.67715E-02   -0.17668E-02  4800   0.416E-01    0.105E+00
DAV:  25    -0.451013180966E+03    0.13485E-02   -0.12327E-02  4752   0.389E-01    0.104E+00
DAV:  26    -0.451027947035E+03   -0.14766E-01   -0.20381E-02  4896   0.531E-01    0.174E+00
DAV:  27    -0.451007140396E+03    0.20807E-01   -0.10959E-02  4794   0.453E-01    0.587E-01
DAV:  28    -0.451008388881E+03   -0.12485E-02   -0.24549E-03  4404   0.147E-01    0.607E-01
DAV:  29    -0.451006328322E+03    0.20606E-02   -0.47950E-03  5076   0.319E-01    0.495E-01
DAV:  30    -0.451005654096E+03    0.67423E-03   -0.23302E-03  4560   0.177E-01    0.265E-01
DAV:  31    -0.451005791094E+03   -0.13700E-03   -0.95811E-04  4452   0.110E-01    0.223E-01
DAV:  32    -0.451005917839E+03   -0.12674E-03   -0.50589E-04  3504   0.801E-02    0.191E-01
DAV:  33    -0.451006352042E+03   -0.43420E-03   -0.32806E-04  3090   0.561E-02    0.192E-01
DAV:  34    -0.451006977649E+03   -0.62561E-03   -0.34152E-04  3138   0.590E-02    0.110E-01
DAV:  35    -0.451007531046E+03   -0.55340E-03   -0.17222E-04  2538   0.433E-02    0.110E-01
DAV:  36    -0.451008430790E+03   -0.89974E-03   -0.14957E-04  2640   0.350E-02    0.111E-01
DAV:  37    -0.451008924261E+03   -0.49347E-03   -0.14925E-04  2640   0.472E-02    0.459E-02
DAV:  38    -0.451009351388E+03   -0.42713E-03   -0.92303E-05  2568   0.300E-02    0.977E-02
DAV:  39    -0.451009948621E+03   -0.59723E-03   -0.73742E-05  2568   0.242E-02    0.131E-01
DAV:  40    -0.451010190598E+03   -0.24198E-03   -0.30980E-05  2640   0.145E-02    0.117E-01
DAV:  41    -0.451010349532E+03   -0.15893E-03   -0.66851E-05  2592   0.397E-02    0.225E-02
DAV:  42    -0.451010505445E+03   -0.15591E-03   -0.25295E-05  2538   0.114E-02    0.181E-02
DAV:  43    -0.451010709570E+03   -0.20413E-03   -0.92945E-06  2556   0.741E-03    0.157E-02
DAV:  44    -0.451010834076E+03   -0.12451E-03   -0.42244E-06  2466   0.565E-03    0.151E-02
DAV:  45    -0.451011029957E+03   -0.19588E-03   -0.71727E-06  2532   0.994E-03    0.195E-02
DAV:  46    -0.451011154195E+03   -0.12424E-03   -0.50788E-06  2544   0.453E-03    0.208E-02
DAV:  47    -0.451011265667E+03   -0.11147E-03   -0.33699E-06  2550   0.392E-03    0.151E-02
DAV:  48    -0.451011327751E+03   -0.62084E-04   -0.20419E-06  2478   0.309E-03
   1 F= -.48801378E+03 E0= -.48746325E+03  d E =-.488014E+03  mag=     0.0027
       N       E                     dE             d eps       ncg     rms          rms(c)
DAV:   1    -0.451032706598E+03   -0.21441E-01   -0.10529E-01  4284   0.272E-01    0.143E-01
DAV:   2    -0.451032821512E+03   -0.11491E-03   -0.25006E-03  4398   0.714E-02    0.124E-01
DAV:   3    -0.451033962459E+03   -0.11409E-02   -0.16166E-03  4266   0.164E-01    0.406E-01
DAV:   4    -0.451034787799E+03   -0.82534E-03   -0.23020E-03  4026   0.249E-01    0.515E-01
DAV:   5    -0.451032975452E+03    0.18123E-02   -0.13191E-03  3468   0.181E-01    0.217E-01
DAV:   6    -0.451032752418E+03    0.22303E-03   -0.64994E-04  2658   0.847E-02    0.103E-01
DAV:   7    -0.451032710547E+03    0.41870E-04   -0.20474E-04  2436   0.501E-02
   2 F= -.48803479E+03 E0= -.48748428E+03  d E =-.210079E-01  mag=     0.0031
       N       E                     dE             d eps       ncg     rms          rms(c)
DAV:   1    -0.451068192697E+03   -0.35440E-01   -0.51573E-01  4272   0.658E-01    0.308E-01
DAV:   2    -0.451071933096E+03   -0.37404E-02   -0.14890E-02  4440   0.281E-01    0.737E-01
DAV:   3    -0.451074384077E+03   -0.24510E-02   -0.10388E-02  4986   0.460E-01    0.898E-01
DAV:   4    -0.451072989598E+03    0.13945E-02   -0.77619E-03  5100   0.460E-01    0.836E-01
DAV:   5    -0.451069620820E+03    0.33688E-02   -0.79649E-03  5088   0.313E-01    0.476E-01
DAV:   6    -0.451068156532E+03    0.14643E-02   -0.31387E-03  4554   0.200E-01    0.228E-01
DAV:   7    -0.451068116533E+03    0.39999E-04   -0.13819E-03  3894   0.119E-01    0.226E-01
DAV:   8    -0.451067897135E+03    0.21940E-03   -0.84096E-04  2928   0.939E-02    0.141E-01
DAV:   9    -0.451067788643E+03    0.10849E-03   -0.29798E-04  2562   0.583E-02    0.735E-02
DAV:  10    -0.451067772466E+03    0.16176E-04   -0.94664E-05  2256   0.307E-02
   3 F= -.48806888E+03 E0= -.48751840E+03  d E =-.340899E-01  mag=     0.0038
       N       E                     dE             d eps       ncg     rms          rms(c)
DAV:   1    -0.451120760105E+03   -0.52971E-01   -0.28596E+00  4272   0.185E+00    0.479E-01
DAV:   2    -0.451125005195E+03   -0.42451E-02   -0.55153E-02  4368   0.394E-01    0.632E-01
DAV:   3    -0.451140377424E+03   -0.15372E-01   -0.19613E-02  4848   0.637E-01    0.154E+00
DAV:   4    -0.451130208487E+03    0.10169E-01   -0.17793E-02  4902   0.699E-01    0.105E+00
DAV:   5    -0.451125571833E+03    0.46367E-02   -0.13908E-02  4986   0.441E-01    0.772E-01
DAV:   6    -0.451123971786E+03    0.16000E-02   -0.11068E-02  4836   0.343E-01    0.566E-01
DAV:   7    -0.451122248321E+03    0.17235E-02   -0.50244E-03  4746   0.245E-01    0.326E-01
DAV:   8    -0.451122068728E+03    0.17959E-03   -0.26469E-03  4764   0.171E-01    0.300E-01
DAV:   9    -0.451121558662E+03    0.51007E-03   -0.12843E-03  3636   0.120E-01    0.124E-01
DAV:  10    -0.451121529848E+03    0.28814E-04   -0.36610E-04  2502   0.634E-02
   4 F= -.48811952E+03 E0= -.48756933E+03  d E =-.506427E-01  mag=     0.0046
       N       E                     dE             d eps       ncg     rms          rms(c)
DAV:   1    -0.451230991474E+03   -0.10943E+00   -0.20332E+01  4272   0.512E+00    0.952E-01
DAV:   2    -0.451269457504E+03   -0.38466E-01   -0.33389E-01  4518   0.101E+00    0.167E+00
DAV:   3    -0.451346535895E+03   -0.77078E-01   -0.11299E-01  4776   0.153E+00    0.351E+00
DAV:   4    -0.451275845632E+03    0.70690E-01   -0.97865E-02  4782   0.143E+00    0.192E+00
DAV:   5    -0.451257802768E+03    0.18043E-01   -0.50485E-02  4830   0.730E-01    0.112E+00
DAV:   6    -0.451256374309E+03    0.14285E-02   -0.27983E-02  4770   0.567E-01    0.952E-01
DAV:   7    -0.451253834544E+03    0.25398E-02   -0.19466E-02  4818   0.489E-01    0.801E-01
DAV:   8    -0.451254223145E+03   -0.38860E-03   -0.18117E-02  4830   0.418E-01    0.851E-01
DAV:   9    -0.451250255110E+03    0.39680E-02   -0.90730E-03  4788   0.300E-01    0.328E-01
DAV:  10    -0.451249718095E+03    0.53701E-03   -0.17630E-03  4626   0.149E-01    0.206E-01
DAV:  11    -0.451249540537E+03    0.17756E-03   -0.64733E-04  3024   0.919E-02    0.127E-01
DAV:  12    -0.451249497562E+03    0.42975E-04   -0.27942E-04  2592   0.536E-02
   5 F= -.48823778E+03 E0= -.48768803E+03  d E =-.118250E+00  mag=     0.0057
       N       E                     dE             d eps       ncg     rms          rms(c)
DAV:   1    -0.448130896114E+03    0.31186E+01   -0.24368E+02  4272   0.132E+01    0.651E+00
DAV:   2    -0.448546026755E+03   -0.41513E+00   -0.70950E+00  4476   0.228E+00    0.332E+00
DAV:   3    -0.449027878154E+03   -0.48185E+00   -0.12737E+00  4824   0.404E+00    0.841E+00
DAV:   4    -0.449625970082E+03   -0.59809E+00   -0.20898E+00  5208   0.604E+00    0.127E+01
DAV:   5    -0.448662011985E+03    0.96396E+00   -0.26237E+00  5184   0.497E+00    0.658E+00
DAV:   6    -0.448455987311E+03    0.20602E+00   -0.77049E-01  4842   0.275E+00    0.379E+00
DAV:   7    -0.448440848774E+03    0.15139E-01   -0.34534E-01  4812   0.199E+00    0.381E+00
DAV:   8    -0.448365982442E+03    0.74866E-01   -0.25495E-01  4824   0.153E+00    0.227E+00
DAV:   9    -0.448333656851E+03    0.32326E-01   -0.65839E-02  4776   0.844E-01    0.100E+00
DAV:  10    -0.448329179874E+03    0.44770E-02   -0.17103E-02  4776   0.396E-01    0.712E-01
DAV:  11    -0.448327539542E+03    0.16403E-02   -0.99948E-03  4776   0.317E-01    0.630E-01
DAV:  12    -0.448325400565E+03    0.21390E-02   -0.55025E-03  4740   0.253E-01    0.403E-01
DAV:  13    -0.448325187970E+03    0.21260E-03   -0.39204E-03  4800   0.209E-01    0.397E-01
DAV:  14    -0.448324552650E+03    0.63532E-03   -0.31376E-03  4746   0.186E-01    0.337E-01
DAV:  15    -0.448323980027E+03    0.57262E-03   -0.15851E-03  3918   0.120E-01    0.173E-01
DAV:  16    -0.448323891790E+03    0.88237E-04   -0.49766E-04  2742   0.697E-02
   6 F= -.48530237E+03 E0= -.48475325E+03  d E =0.293541E+01  mag=     0.0077
       N       E                     dE             d eps       ncg     rms          rms(c)
DAV:   1    -0.451644909221E+03   -0.33209E+01   -0.71208E+01  4272   0.458E+00    0.378E+00
DAV:   2    -0.451554439060E+03    0.90470E-01   -0.13392E+00  4704   0.153E+00    0.276E+00
DAV:   3    -0.452129242829E+03   -0.57480E+00   -0.93071E-01  4920   0.367E+00    0.953E+00
DAV:   4    -0.452281155822E+03   -0.15191E+00   -0.15811E+00  5400   0.501E+00    0.983E+00
DAV:   5    -0.451759723119E+03    0.52143E+00   -0.17839E+00  5406   0.446E+00    0.645E+00
DAV:   6    -0.451495252262E+03    0.26447E+00   -0.42152E-01  4854   0.216E+00    0.237E+00
DAV:   7    -0.451478943813E+03    0.16308E-01   -0.14578E-01  4884   0.124E+00    0.219E+00
DAV:   8    -0.451460975079E+03    0.17969E-01   -0.90620E-02  4842   0.942E-01    0.160E+00
DAV:   9    -0.451447201626E+03    0.13773E-01   -0.34837E-02  4806   0.585E-01    0.759E-01
DAV:  10    -0.451444755529E+03    0.24461E-02   -0.84602E-03  4770   0.291E-01    0.531E-01
DAV:  11    -0.451443986405E+03    0.76912E-03   -0.39833E-03  4848   0.204E-01    0.386E-01
DAV:  12    -0.451443400100E+03    0.58630E-03   -0.20160E-03  4716   0.155E-01    0.209E-01
DAV:  13    -0.451443874106E+03   -0.47401E-03   -0.17074E-03  4746   0.138E-01    0.251E-01
DAV:  14    -0.451444286287E+03   -0.41218E-03   -0.16904E-03  3948   0.124E-01    0.257E-01
DAV:  15    -0.451444177114E+03    0.10917E-03   -0.10028E-03  2970   0.963E-02    0.122E-01
DAV:  16    -0.451444244083E+03   -0.66969E-04   -0.25147E-04  2562   0.540E-02
   7 F= -.48841910E+03 E0= -.48787040E+03  d E =-.311674E+01  mag=     0.0102
       N       E                     dE             d eps       ncg     rms          rms(c)
DAV:   1    -0.451526565398E+03   -0.82388E-01   -0.11386E+00  4284   0.715E-01    0.511E-01
DAV:   2    -0.451529595834E+03   -0.30304E-02   -0.28257E-02  4434   0.321E-01    0.754E-01
DAV:   3    -0.451543911474E+03   -0.14316E-01   -0.24858E-02  5202   0.647E-01    0.158E+00
DAV:   4    -0.451553698907E+03   -0.97874E-02   -0.35601E-02  5610   0.929E-01    0.188E+00
DAV:   5    -0.451529503985E+03    0.24195E-01   -0.26532E-02  5514   0.696E-01    0.739E-01
DAV:   6    -0.451526337551E+03    0.31664E-02   -0.89271E-03  5034   0.305E-01    0.421E-01
DAV:   7    -0.451525606731E+03    0.73082E-03   -0.36447E-03  4884   0.185E-01    0.299E-01
DAV:   8    -0.451525336990E+03    0.26974E-03   -0.17968E-03  4356   0.132E-01    0.211E-01
DAV:   9    -0.451525195173E+03    0.14182E-03   -0.71888E-04  2946   0.910E-02    0.119E-01
DAV:  10    -0.451525172820E+03    0.22353E-04   -0.22950E-04  2550   0.547E-02
   8 F= -.48849943E+03 E0= -.48795093E+03  d E =-.803288E-01  mag=     0.0121
       N       E                     dE             d eps       ncg     rms          rms(c)
DAV:   1    -0.451569719724E+03   -0.44525E-01   -0.12855E+00  4272   0.887E-01    0.516E-01
DAV:   2    -0.451574994757E+03   -0.52750E-02   -0.32175E-02  4446   0.380E-01    0.880E-01
DAV:   3    -0.451598956926E+03   -0.23962E-01   -0.29124E-02  5430   0.838E-01    0.194E+00
DAV:   4    -0.451576515599E+03    0.22441E-01   -0.26194E-02  5358   0.778E-01    0.101E+00
DAV:   5    -0.451572408499E+03    0.41071E-02   -0.17485E-02  5052   0.422E-01    0.751E-01
DAV:   6    -0.451570463819E+03    0.19447E-02   -0.96911E-03  4926   0.316E-01    0.532E-01
DAV:   7    -0.451568766211E+03    0.16976E-02   -0.38493E-03  4818   0.208E-01    0.258E-01
DAV:   8    -0.451568675596E+03    0.90616E-04   -0.16847E-03  4374   0.138E-01    0.235E-01
DAV:   9    -0.451568450947E+03    0.22465E-03   -0.83979E-04  2988   0.956E-02    0.135E-01
DAV:  10    -0.451568449954E+03    0.99240E-06   -0.28306E-04  2562   0.528E-02
   9 F= -.48854160E+03 E0= -.48799338E+03  d E =-.421698E-01  mag=     0.0143
       N       E                     dE             d eps       ncg     rms          rms(c)
DAV:   1    -0.451588245267E+03   -0.19794E-01   -0.49138E-01  4284   0.733E-01    0.226E-01
DAV:   2    -0.451591504842E+03   -0.32596E-02   -0.11137E-02  4428   0.263E-01    0.662E-01
DAV:   3    -0.451590922712E+03    0.58213E-03   -0.56041E-03  4788   0.357E-01    0.573E-01
DAV:   4    -0.451589274535E+03    0.16482E-02   -0.29104E-03  4662   0.251E-01    0.369E-01
DAV:   5    -0.451589007795E+03    0.26674E-03   -0.30389E-03  4632   0.165E-01    0.315E-01
DAV:   6    -0.451589037200E+03   -0.29405E-04   -0.24462E-03  4368   0.161E-01    0.291E-01
DAV:   7    -0.451588469353E+03    0.56785E-03   -0.11274E-03  3960   0.122E-01    0.113E-01
DAV:   8    -0.451588598860E+03   -0.12951E-03   -0.57315E-04  2784   0.796E-02    0.182E-01
DAV:   9    -0.451588461449E+03    0.13741E-03   -0.35494E-04  2568   0.605E-02    0.765E-02
DAV:  10    -0.451588496388E+03   -0.34939E-04   -0.86750E-05  2430   0.317E-02
  10 F= -.48856047E+03 E0= -.48801243E+03  d E =-.188677E-01  mag=     0.0171
       N       E                     dE             d eps       ncg     rms          rms(c)
DAV:   1    -0.451671470867E+03   -0.83009E-01   -0.14545E+01  4284   0.415E+00    0.939E-01
DAV:   2    -0.451694192114E+03   -0.22721E-01   -0.25342E-01  4488   0.811E-01    0.124E+00
DAV:   3    -0.451758647049E+03   -0.64455E-01   -0.75816E-02  4758   0.126E+00    0.308E+00
DAV:   4    -0.451708015388E+03    0.50632E-01   -0.80572E-02  4854   0.136E+00    0.179E+00
DAV:   5    -0.451698408745E+03    0.96066E-02   -0.47907E-02  4854   0.768E-01    0.151E+00
DAV:   6    -0.451693373765E+03    0.50350E-02   -0.39690E-02  4860   0.632E-01    0.108E+00
DAV:   7    -0.451687772800E+03    0.56010E-02   -0.20793E-02  4854   0.502E-01    0.720E-01
DAV:   8    -0.451687286658E+03    0.48614E-03   -0.13396E-02  4854   0.376E-01    0.704E-01
DAV:   9    -0.451684889600E+03    0.23971E-02   -0.69393E-03  4800   0.262E-01    0.357E-01
DAV:  10    -0.451684304544E+03    0.58506E-03   -0.19174E-03  4614   0.145E-01    0.235E-01
DAV:  11    -0.451684069127E+03    0.23542E-03   -0.78473E-04  2952   0.945E-02    0.143E-01
DAV:  12    -0.451683957408E+03    0.11172E-03   -0.26192E-04  2496   0.561E-02    0.577E-02
DAV:  13    -0.451683976428E+03   -0.19020E-04   -0.98650E-05  2352   0.326E-02
  11 F= -.48864960E+03 E0= -.48810251E+03  d E =-.891306E-01  mag=     0.0214
       N       E                     dE             d eps       ncg     rms          rms(c)
DAV:   1    -0.448302769004E+03    0.33812E+01   -0.24512E+02  4272   0.136E+01    0.704E+00
DAV:   2    -0.448646923050E+03   -0.34415E+00   -0.67137E+00  4482   0.242E+00    0.350E+00
DAV:   3    -0.450388908088E+03   -0.17420E+01   -0.19231E+00  4998   0.590E+00    0.149E+01
DAV:   4    -0.449460302091E+03    0.92861E+00   -0.34706E+00  5238   0.721E+00    0.113E+01
DAV:   5    -0.448702444580E+03    0.75786E+00   -0.18659E+00  5196   0.434E+00    0.613E+00
DAV:   6    -0.448566801202E+03    0.13564E+00   -0.71550E-01  4866   0.271E+00    0.399E+00
DAV:   7    -0.448523303815E+03    0.43497E-01   -0.33580E-01  4836   0.213E+00    0.349E+00
DAV:   8    -0.448469974558E+03    0.53329E-01   -0.26449E-01  4842   0.160E+00    0.264E+00
DAV:   9    -0.448426769726E+03    0.43205E-01   -0.10005E-01  4818   0.960E-01    0.105E+00
DAV:  10    -0.448421438948E+03    0.53308E-02   -0.21587E-02  4656   0.438E-01    0.745E-01
DAV:  11    -0.448421586117E+03   -0.14717E-03   -0.12603E-02  4752   0.359E-01    0.836E-01
DAV:  12    -0.448418288719E+03    0.32974E-02   -0.82608E-03  4728   0.298E-01    0.571E-01
DAV:  13    -0.448417433803E+03    0.85492E-03   -0.48506E-03  4812   0.220E-01    0.500E-01
DAV:  14    -0.448416664995E+03    0.76881E-03   -0.45015E-03  4776   0.206E-01    0.364E-01
DAV:  15    -0.448415768808E+03    0.89619E-03   -0.18609E-03  4740   0.152E-01    0.168E-01
DAV:  16    -0.448415782806E+03   -0.13998E-04   -0.55299E-04  3162   0.780E-02
  12 F= -.48536830E+03 E0= -.48482133E+03  d E =0.328130E+01  mag=     0.0281
       N       E                     dE             d eps       ncg     rms          rms(c)
DAV:   1    -0.451913457888E+03   -0.34977E+01   -0.68936E+01  4272   0.472E+00    0.380E+00
DAV:   2    -0.451836002541E+03    0.77455E-01   -0.13145E+00  4728   0.151E+00    0.295E+00
DAV:   3    -0.454861102505E+03   -0.30251E+01   -0.15300E+00  5820   0.665E+00    0.192E+01
DAV:   4    -0.452053306355E+03    0.28078E+01   -0.25823E+00  5796   0.692E+00    0.582E+00
DAV:   5    -0.451855086205E+03    0.19822E+00   -0.67817E-01  5202   0.286E+00    0.436E+00
DAV:   6    -0.451816088952E+03    0.38997E-01   -0.39532E-01  4950   0.185E+00    0.340E+00
DAV:   7    -0.451771206183E+03    0.44883E-01   -0.17415E-01  4818   0.131E+00    0.245E+00
DAV:   8    -0.451740222243E+03    0.30984E-01   -0.73530E-02  4830   0.848E-01    0.162E+00
DAV:   9    -0.451727012339E+03    0.13210E-01   -0.27671E-02  4806   0.539E-01    0.929E-01
DAV:  10    -0.451723241638E+03    0.37707E-02   -0.12676E-02  4824   0.384E-01    0.647E-01
DAV:  11    -0.451722542404E+03    0.69923E-03   -0.96836E-03  4812   0.326E-01    0.572E-01
DAV:  12    -0.451722114524E+03    0.42788E-03   -0.41581E-03  4788   0.211E-01    0.458E-01
DAV:  13    -0.451721231841E+03    0.88268E-03   -0.15274E-03  4524   0.133E-01    0.297E-01
DAV:  14    -0.451721082925E+03    0.14892E-03   -0.11640E-03  3042   0.118E-01    0.236E-01
DAV:  15    -0.451721282335E+03   -0.19941E-03   -0.86344E-04  3024   0.103E-01    0.202E-01
DAV:  16    -0.451721398301E+03   -0.11597E-03   -0.32995E-04  2610   0.627E-02    0.161E-01
DAV:  17    -0.451721484921E+03   -0.86620E-04   -0.20231E-04  2580   0.489E-02
  13 F= -.48867534E+03 E0= -.48812937E+03  d E =-.330704E+01  mag=     0.0371
       N       E                     dE             d eps       ncg     rms          rms(c)
DAV:   1    -0.451840265968E+03   -0.11887E+00   -0.17182E+00  4284   0.904E-01    0.613E-01
DAV:   2    -0.451842527857E+03   -0.22619E-02   -0.37435E-02  4506   0.324E-01    0.727E-01
DAV:   3    -0.451882137605E+03   -0.39610E-01   -0.42372E-02  5394   0.887E-01    0.240E+00
DAV:   4    -0.451867992696E+03    0.14145E-01   -0.61005E-02  5592   0.114E+00    0.195E+00
DAV:   5    -0.451841591619E+03    0.26401E-01   -0.32917E-02  5418   0.707E-01    0.646E-01
DAV:   6    -0.451839175179E+03    0.24164E-02   -0.71707E-03  4950   0.304E-01    0.424E-01
DAV:   7    -0.451838333124E+03    0.84205E-03   -0.31393E-03  4728   0.194E-01    0.307E-01
DAV:   8    -0.451838141543E+03    0.19158E-03   -0.18760E-03  4164   0.141E-01    0.281E-01
DAV:   9    -0.451837723833E+03    0.41771E-03   -0.91463E-04  3000   0.101E-01    0.105E-01
DAV:  10    -0.451837736352E+03   -0.12519E-04   -0.22024E-04  2562   0.500E-02
  14 F= -.48879168E+03 E0= -.48824607E+03  d E =-.116336E+00  mag=     0.0437
       N       E                     dE             d eps       ncg     rms          rms(c)
DAV:   1    -0.451884583518E+03   -0.46860E-01   -0.15037E+00  4290   0.894E-01    0.557E-01
DAV:   2    -0.451886275078E+03   -0.16916E-02   -0.33575E-02  4428   0.303E-01    0.598E-01
DAV:   3    -0.451931933004E+03   -0.45658E-01   -0.37141E-02  5598   0.907E-01    0.248E+00
DAV:   4    -0.451897321846E+03    0.34611E-01   -0.43426E-02  5670   0.102E+00    0.133E+00
DAV:   5    -0.451886310633E+03    0.11011E-01   -0.21917E-02  5094   0.491E-01    0.676E-01
DAV:   6    -0.451884458861E+03    0.18518E-02   -0.87351E-03  5070   0.314E-01    0.479E-01
DAV:   7    -0.451883015637E+03    0.14432E-02   -0.33924E-03  4806   0.201E-01    0.249E-01
DAV:   8    -0.451882995009E+03    0.20628E-04   -0.18701E-03  4140   0.130E-01    0.253E-01
DAV:   9    -0.451882668509E+03    0.32650E-03   -0.95341E-04  2976   0.968E-02    0.122E-01
DAV:  10    -0.451882631089E+03    0.37420E-04   -0.25511E-04  2538   0.498E-02
  15 F= -.48883644E+03 E0= -.48829107E+03  d E =-.447602E-01  mag=     0.0515
       N       E                     dE             d eps       ncg     rms          rms(c)
DAV:   1    -0.451888182237E+03   -0.55137E-02   -0.10844E-01  4314   0.298E-01    0.146E-01
DAV:   2    -0.451893386479E+03   -0.52042E-02   -0.51430E-03  4824   0.280E-01    0.826E-01
DAV:   3    -0.451888442338E+03    0.49441E-02   -0.35847E-03  4878   0.291E-01    0.197E-01
DAV:   4    -0.451888472742E+03   -0.30403E-04   -0.99547E-04  3534   0.121E-01
  16 F= -.48884199E+03 E0= -.48829664E+03  d E =-.555290E-02  mag=     0.0551
       N       E                     dE             d eps       ncg     rms          rms(c)
DAV:   1    -0.451899705856E+03   -0.11264E-01   -0.60697E-01  4284   0.814E-01    0.325E-01
DAV:   2    -0.451912294267E+03   -0.12588E-01   -0.34340E-02  4530   0.496E-01    0.142E+00
DAV:   3    -0.451900642576E+03    0.11652E-01   -0.24801E-02  4746   0.460E-01    0.378E-01
DAV:   4    -0.451904701790E+03   -0.40592E-02   -0.50680E-03  4740   0.328E-01    0.817E-01
DAV:   5    -0.451900753913E+03    0.39479E-02   -0.47990E-03  4698   0.354E-01    0.423E-01
DAV:   6    -0.451900489160E+03    0.26475E-03   -0.26831E-03  4692   0.206E-01    0.401E-01
DAV:   7    -0.451900244524E+03    0.24464E-03   -0.34689E-03  4572   0.188E-01    0.383E-01
DAV:   8    -0.451899333787E+03    0.91074E-03   -0.20800E-03  3990   0.140E-01    0.136E-01
DAV:   9    -0.451899266561E+03    0.67226E-04   -0.53379E-04  2712   0.750E-02
  17 F= -.48885175E+03 E0= -.48830665E+03  d E =-.975276E-02  mag=     0.0641
       N       E                     dE             d eps       ncg     rms          rms(c)
DAV:   1    -0.451926842958E+03   -0.27509E-01   -0.77331E+00  4272   0.297E+00    0.658E-01
DAV:   2    -0.451936716876E+03   -0.98739E-02   -0.12104E-01  4602   0.479E-01    0.613E-01
DAV:   3    -0.451962185868E+03   -0.25469E-01   -0.29652E-02  4752   0.720E-01    0.190E+00
DAV:   4    -0.451954175344E+03    0.80105E-02   -0.38957E-02  4848   0.978E-01    0.160E+00
DAV:   5    -0.451939841114E+03    0.14334E-01   -0.22471E-02  4944   0.594E-01    0.885E-01
DAV:   6    -0.451937914523E+03    0.19266E-02   -0.16665E-02  4866   0.407E-01    0.676E-01
DAV:   7    -0.451936688630E+03    0.12259E-02   -0.11174E-02  4884   0.333E-01    0.572E-01
DAV:   8    -0.451935358384E+03    0.13302E-02   -0.56656E-03  4794   0.237E-01    0.362E-01
DAV:   9    -0.451934665786E+03    0.69260E-03   -0.19972E-03  4542   0.148E-01    0.234E-01
DAV:  10    -0.451934384625E+03    0.28116E-03   -0.95972E-04  2994   0.940E-02    0.154E-01
DAV:  11    -0.451934204824E+03    0.17980E-03   -0.33407E-04  2544   0.604E-02    0.685E-02
DAV:  12    -0.451934139334E+03    0.65491E-04   -0.89725E-05  2340   0.335E-02
  18 F= -.48888294E+03 E0= -.48833868E+03  d E =-.311994E-01  mag=     0.0780
       N       E                     dE             d eps       ncg     rms          rms(c)
DAV:   1    -0.451946817609E+03   -0.12613E-01   -0.29890E+01  4272   0.581E+00    0.121E+00
DAV:   2    -0.451993083828E+03   -0.46266E-01   -0.45166E-01  4698   0.889E-01    0.132E+00
DAV:   3    -0.452265105720E+03   -0.27202E+00   -0.18861E-01  5196   0.216E+00    0.609E+00
DAV:   4    -0.452006480748E+03    0.25862E+00   -0.32257E-01  5184   0.199E+00    0.184E+00
DAV:   5    -0.451993971108E+03    0.12510E-01   -0.69411E-02  5082   0.828E-01    0.142E+00
DAV:   6    -0.451989068032E+03    0.49031E-02   -0.34475E-02  4812   0.618E-01    0.978E-01
DAV:   7    -0.451985188939E+03    0.38791E-02   -0.21586E-02  4842   0.505E-01    0.754E-01
DAV:   8    -0.451983021437E+03    0.21675E-02   -0.14525E-02  4806   0.367E-01    0.567E-01
DAV:   9    -0.451981835397E+03    0.11860E-02   -0.65767E-03  4836   0.241E-01    0.360E-01
DAV:  10    -0.451981086863E+03    0.74853E-03   -0.22093E-03  4704   0.153E-01    0.214E-01
DAV:  11    -0.451980827530E+03    0.25933E-03   -0.81073E-04  2898   0.964E-02    0.165E-01
DAV:  12    -0.451980628065E+03    0.19946E-03   -0.36906E-04  2544   0.628E-02    0.854E-02
DAV:  13    -0.451980535625E+03    0.92440E-04   -0.18374E-04  2460   0.426E-02
  19 F= -.48892486E+03 E0= -.48838181E+03  d E =-.419178E-01  mag=     0.0973
       N       E                     dE             d eps       ncg     rms          rms(c)
DAV:   1    -0.451978255543E+03    0.23725E-02   -0.15483E+01  4272   0.434E+00    0.739E-01
DAV:   2    -0.452019234445E+03   -0.40979E-01   -0.23170E-01  4494   0.835E-01    0.177E+00
DAV:   3    -0.452039989873E+03   -0.20755E-01   -0.66091E-02  4788   0.125E+00    0.236E+00
DAV:   4    -0.452013862014E+03    0.26128E-01   -0.53874E-02  4806   0.981E-01    0.157E+00
DAV:   5    -0.451998841797E+03    0.15020E-01   -0.29674E-02  4872   0.543E-01    0.626E-01
DAV:   6    -0.451999311416E+03   -0.46962E-03   -0.10855E-02  4824   0.358E-01    0.680E-01
DAV:   7    -0.451999006691E+03    0.30473E-03   -0.10387E-02  4770   0.341E-01    0.640E-01
DAV:   8    -0.451997038477E+03    0.19682E-02   -0.72814E-03  4800   0.271E-01    0.403E-01
DAV:   9    -0.451996294571E+03    0.74391E-03   -0.33468E-03  4728   0.177E-01    0.265E-01
DAV:  10    -0.451996110786E+03    0.18378E-03   -0.15781E-03  3936   0.122E-01    0.238E-01
DAV:  11    -0.451995608246E+03    0.50254E-03   -0.55424E-04  2700   0.839E-02    0.664E-02
DAV:  12    -0.451995537096E+03    0.71150E-04   -0.92043E-05  2346   0.304E-02
  20 F= -.48894351E+03 E0= -.48840103E+03  d E =-.186481E-01  mag=     0.1181
       N       E                     dE             d eps       ncg     rms          rms(c)
DAV:   1    -0.451965462029E+03    0.30146E-01   -0.28583E+01  4272   0.587E+00    0.972E-01
DAV:   2    -0.452006908172E+03   -0.41446E-01   -0.41072E-01  4398   0.879E-01    0.107E+00
DAV:   3    -0.452059412418E+03   -0.52504E-01   -0.89559E-02  4776   0.111E+00    0.292E+00
DAV:   4    -0.452063468124E+03   -0.40557E-02   -0.11035E-01  4908   0.150E+00    0.283E+00
DAV:   5    -0.452009181390E+03    0.54287E-01   -0.61541E-02  4968   0.110E+00    0.117E+00
DAV:   6    -0.452005020953E+03    0.41604E-02   -0.23828E-02  4788   0.525E-01    0.903E-01
DAV:   7    -0.452003982746E+03    0.10382E-02   -0.20547E-02  4788   0.466E-01    0.840E-01
DAV:   8    -0.452001507339E+03    0.24754E-02   -0.14947E-02  4794   0.382E-01    0.604E-01
DAV:   9    -0.451999696364E+03    0.18110E-02   -0.66431E-03  4800   0.268E-01    0.363E-01
DAV:  10    -0.451999040140E+03    0.65622E-03   -0.26419E-03  4716   0.166E-01    0.240E-01
DAV:  11    -0.451998728003E+03    0.31214E-03   -0.10698E-03  3366   0.103E-01    0.160E-01
DAV:  12    -0.451998493966E+03    0.23404E-03   -0.41464E-04  2544   0.661E-02    0.110E-01
DAV:  13    -0.451998359318E+03    0.13465E-03   -0.16446E-04  2358   0.405E-02    0.676E-02
DAV:  14    -0.451998217848E+03    0.14147E-03   -0.72265E-05  2310   0.279E-02    0.531E-02
DAV:  15    -0.451997931067E+03    0.28678E-03   -0.45172E-05  2334   0.217E-02    0.383E-02
DAV:  16    -0.451997757275E+03    0.17379E-03   -0.22537E-05  2262   0.149E-02    0.316E-02
DAV:  17    -0.451997642856E+03    0.11442E-03   -0.10318E-05  2208   0.865E-03    0.292E-02
DAV:  18    -0.451997498972E+03    0.14388E-03   -0.36010E-06  2238   0.552E-03    0.245E-02
DAV:  19    -0.451997469617E+03    0.29355E-04   -0.76412E-07  2202   0.167E-03
  21 F= -.48895693E+03 E0= -.48841477E+03  d E =-.134181E-01  mag=     0.1520
       N       E                     dE             d eps       ncg     rms          rms(c)
DAV:   1    -0.451827410628E+03    0.17009E+00   -0.11475E+02  4272   0.121E+01    0.168E+00
DAV:   2    -0.451986630647E+03   -0.15922E+00   -0.16801E+00  4452   0.183E+00    0.147E+00
DAV:   3    -0.452033276650E+03   -0.46646E-01   -0.18821E-01  4464   0.138E+00    0.298E+00
DAV:   4    -0.452061428791E+03   -0.28152E-01   -0.14838E-01  4692   0.170E+00    0.351E+00
DAV:   5    -0.452012867938E+03    0.48561E-01   -0.12233E-01  4770   0.160E+00    0.244E+00
DAV:   6    -0.451990074858E+03    0.22793E-01   -0.88399E-02  4746   0.116E+00    0.176E+00
DAV:   7    -0.451982905749E+03    0.71691E-02   -0.70542E-02  4842   0.837E-01    0.134E+00
DAV:   8    -0.451974561798E+03    0.83440E-02   -0.38244E-02  4824   0.665E-01    0.975E-01
DAV:   9    -0.451971818808E+03    0.27430E-02   -0.23764E-02  4794   0.464E-01    0.784E-01
DAV:  10    -0.451968552900E+03    0.32659E-02   -0.10234E-02  4794   0.306E-01    0.341E-01
DAV:  11    -0.451967851041E+03    0.70186E-03   -0.22860E-03  4686   0.166E-01    0.229E-01
DAV:  12    -0.451967538809E+03    0.31223E-03   -0.10555E-03  3258   0.105E-01    0.193E-01
DAV:  13    -0.451967227300E+03    0.31151E-03   -0.51778E-04  2598   0.701E-02    0.937E-02
DAV:  14    -0.451966943840E+03    0.28346E-03   -0.24459E-04  2448   0.485E-02    0.946E-02
DAV:  15    -0.451966574505E+03    0.36934E-03   -0.20255E-04  2406   0.439E-02    0.709E-02
DAV:  16    -0.451966363042E+03    0.21146E-03   -0.94503E-05  2298   0.302E-02    0.486E-02
DAV:  17    -0.451966093634E+03    0.26941E-03   -0.42851E-05  2304   0.195E-02    0.486E-02
DAV:  18    -0.451965913370E+03    0.18026E-03   -0.20802E-05  2196   0.137E-02    0.383E-02
DAV:  19    -0.451965815137E+03    0.98233E-04   -0.48046E-06  2214   0.622E-03
  22 F= -.48896074E+03 E0= -.48841895E+03  d E =-.381254E-02  mag=     0.2004
       N       E                     dE             d eps       ncg     rms          rms(c)
DAV:   1    -0.451945795740E+03    0.20118E-01   -0.19230E+01  4272   0.524E+00    0.663E-01
DAV:   2    -0.451972201776E+03   -0.26406E-01   -0.27405E-01  4386   0.874E-01    0.890E-01
DAV:   3    -0.451975654739E+03   -0.34530E-02   -0.36370E-02  4704   0.609E-01    0.120E+00
DAV:   4    -0.451971952715E+03    0.37020E-02   -0.27279E-02  4692   0.524E-01    0.913E-01
DAV:   5    -0.451988091502E+03   -0.16139E-01   -0.19498E-02  4968   0.695E-01    0.170E+00
DAV:   6    -0.451969468066E+03    0.18623E-01   -0.20680E-02  4926   0.673E-01    0.748E-01
DAV:   7    -0.451968323811E+03    0.11443E-02   -0.11872E-02  4842   0.395E-01    0.691E-01
DAV:   8    -0.451966885809E+03    0.14380E-02   -0.10686E-02  4848   0.314E-01    0.564E-01
DAV:   9    -0.451964779710E+03    0.21061E-02   -0.50321E-03  4818   0.227E-01    0.257E-01
DAV:  10    -0.451964233672E+03    0.54604E-03   -0.13405E-03  4446   0.118E-01    0.144E-01
DAV:  11    -0.451963996393E+03    0.23728E-03   -0.40394E-04  2598   0.629E-02    0.885E-02
DAV:  12    -0.451963704776E+03    0.29162E-03   -0.12551E-04  2418   0.364E-02    0.680E-02
DAV:  13    -0.451963467166E+03    0.23761E-03   -0.54801E-05  2262   0.238E-02    0.554E-02
DAV:  14    -0.451963224636E+03    0.24253E-03   -0.39250E-05  2268   0.177E-02    0.550E-02
DAV:  15    -0.451962764886E+03    0.45975E-03   -0.34745E-05  2364   0.159E-02    0.456E-02
DAV:  16    -0.451962400117E+03    0.36477E-03   -0.17719E-05  2268   0.119E-02    0.400E-02
DAV:  17    -0.451962316710E+03    0.83407E-04   -0.45498E-06  2202   0.454E-03
  23 F= -.48896809E+03 E0= -.48842624E+03  d E =-.734540E-02  mag=     0.2517
       N       E                     dE             d eps       ncg     rms          rms(c)
DAV:   1    -0.451963773182E+03   -0.13731E-02   -0.33483E+00  4284   0.196E+00    0.394E-01
DAV:   2    -0.451967431518E+03   -0.36583E-02   -0.46261E-02  4674   0.296E-01    0.383E-01
DAV:   3    -0.451986712974E+03   -0.19281E-01   -0.16633E-02  4914   0.591E-01    0.163E+00
DAV:   4    -0.451969186568E+03    0.17526E-01   -0.15531E-02  4842   0.645E-01    0.752E-01
DAV:   5    -0.451967131983E+03    0.20546E-02   -0.77147E-03  4884   0.323E-01    0.524E-01
DAV:   6    -0.451965700013E+03    0.14320E-02   -0.45553E-03  4770   0.219E-01    0.311E-01
DAV:   7    -0.451964965606E+03    0.73441E-03   -0.24313E-03  4632   0.171E-01    0.285E-01
DAV:   8    -0.451964223546E+03    0.74206E-03   -0.18265E-03  3954   0.132E-01    0.221E-01
DAV:   9    -0.451963557383E+03    0.66616E-03   -0.80150E-04  2832   0.911E-02    0.122E-01
DAV:  10    -0.451963086302E+03    0.47108E-03   -0.23018E-04  2454   0.535E-02    0.737E-02
DAV:  11    -0.451962649202E+03    0.43710E-03   -0.76808E-05  2442   0.302E-02    0.626E-02
DAV:  12    -0.451962340247E+03    0.30896E-03   -0.28043E-05  2292   0.181E-02    0.484E-02
DAV:  13    -0.451962126687E+03    0.21356E-03   -0.56122E-06  2202   0.712E-03    0.455E-02
DAV:  14    -0.451962171982E+03   -0.45296E-04   -0.10063E-06  2202   0.155E-03
  24 F= -.48896534E+03 E0= -.48842330E+03  d E =0.275055E-02  mag=     0.3007
       N       E                     dE             d eps       ncg     rms          rms(c)
DAV:   1    -0.451955972783E+03    0.61539E-02   -0.14430E+00  4284   0.144E+00    0.147E-01
DAV:   2    -0.451958083712E+03   -0.21109E-02   -0.22454E-02  4362   0.271E-01    0.403E-01
DAV:   3    -0.451958226351E+03   -0.14264E-03   -0.33960E-03  4668   0.253E-01    0.462E-01
DAV:   4    -0.451956803371E+03    0.14230E-02   -0.16810E-03  4416   0.205E-01    0.253E-01
DAV:   5    -0.451956238781E+03    0.56459E-03   -0.79652E-04  2772   0.939E-02    0.215E-01
DAV:   6    -0.451955739868E+03    0.49891E-03   -0.42952E-04  2538   0.659E-02    0.126E-01
DAV:   7    -0.451955148089E+03    0.59178E-03   -0.37327E-04  2526   0.665E-02    0.149E-01
DAV:   8    -0.451953583530E+03    0.15646E-02   -0.56635E-04  2676   0.742E-02    0.167E-01
DAV:   9    -0.451952661042E+03    0.92249E-03   -0.39925E-04  2484   0.606E-02    0.808E-02
DAV:  10    -0.451952229425E+03    0.43162E-03   -0.95896E-05  2400   0.290E-02    0.580E-02
DAV:  11    -0.451951715344E+03    0.51408E-03   -0.25026E-05  2316   0.139E-02    0.564E-02
DAV:  12    -0.451951517312E+03    0.19803E-03   -0.58211E-06  2208   0.626E-03    0.545E-02
DAV:  13    -0.451951833473E+03   -0.31616E-03   -0.33105E-06  2208   0.457E-03    0.567E-02
DAV:  14    -0.451953213489E+03   -0.13800E-02   -0.15364E-05  2388   0.113E-02    0.630E-02
DAV:  15    -0.451954848370E+03   -0.16349E-02   -0.31849E-05  2466   0.158E-02    0.733E-02
DAV:  16    -0.451957607582E+03   -0.27592E-02   -0.56118E-05  2526   0.194E-02    0.733E-02
DAV:  17    -0.451961507554E+03   -0.39000E-02   -0.76801E-05  2652   0.214E-02    0.694E-02
DAV:  18    -0.451964489960E+03   -0.29824E-02   -0.69855E-05  2562   0.216E-02    0.766E-02
DAV:  19    -0.451968528090E+03   -0.40381E-02   -0.14440E-04  2682   0.293E-02    0.910E-02
DAV:  20    -0.451973651001E+03   -0.51229E-02   -0.26723E-04  3006   0.361E-02    0.762E-02
DAV:  21    -0.451979051913E+03   -0.54009E-02   -0.31261E-04  3234   0.358E-02    0.567E-02
DAV:  22    -0.451980229780E+03   -0.11779E-02   -0.14870E-04  2814   0.264E-02    0.467E-02
DAV:  23    -0.451979876031E+03    0.35375E-03   -0.41430E-05  2700   0.161E-02    0.370E-02
DAV:  24    -0.451979778930E+03    0.97101E-04   -0.17269E-05  2370   0.110E-02
  25 F= -.48898822E+03 E0= -.48844608E+03  d E =-.228862E-01  mag=    -0.0311
       N       E                     dE             d eps       ncg     rms          rms(c)
DAV:   1    -0.451972966687E+03    0.69093E-02   -0.16556E+00  4314   0.155E+00    0.146E-01
DAV:   2    -0.451976307314E+03   -0.33406E-02   -0.26583E-02  4314   0.281E-01    0.360E-01
DAV:   3    -0.451976416386E+03   -0.10907E-03   -0.34665E-03  4566   0.219E-01    0.376E-01
DAV:   4    -0.451976569337E+03   -0.15295E-03   -0.19602E-03  4224   0.223E-01    0.399E-01
DAV:   5    -0.451975575467E+03    0.99387E-03   -0.10941E-03  3012   0.143E-01    0.193E-01
DAV:   6    -0.451975360406E+03    0.21506E-03   -0.33042E-04  2502   0.596E-02    0.901E-02
DAV:   7    -0.451975453061E+03   -0.92655E-04   -0.33998E-04  2496   0.620E-02
  26 F= -.48898909E+03 E0= -.48844712E+03  d E =-.867752E-03  mag=    -0.0320
       N       E                     dE             d eps       ncg     rms          rms(c)
DAV:   1    -0.451936729223E+03    0.38631E-01   -0.17125E+01  4284   0.490E+00    0.535E-01
DAV:   2    -0.451976949320E+03   -0.40220E-01   -0.29258E-01  4296   0.921E-01    0.151E+00
DAV:   3    -0.451967373665E+03    0.95757E-02   -0.46630E-02  4584   0.704E-01    0.936E-01
DAV:   4    -0.451976969536E+03   -0.95959E-02   -0.21503E-02  4740   0.623E-01    0.140E+00
DAV:   5    -0.451967508569E+03    0.94610E-02   -0.14743E-02  4710   0.629E-01    0.921E-01
DAV:   6    -0.451961607221E+03    0.59013E-02   -0.55746E-03  4698   0.311E-01    0.293E-01
DAV:   7    -0.451963337635E+03   -0.17304E-02   -0.52681E-03  4758   0.259E-01    0.571E-01
DAV:   8    -0.451962579526E+03    0.75811E-03   -0.72831E-03  4770   0.270E-01    0.514E-01
DAV:   9    -0.451960965369E+03    0.16142E-02   -0.38399E-03  4776   0.187E-01    0.168E-01
DAV:  10    -0.451960841526E+03    0.12384E-03   -0.82657E-04  3468   0.820E-02    0.120E-01
DAV:  11    -0.451960795483E+03    0.46043E-04   -0.32375E-04  2466   0.562E-02
  27 F= -.48898861E+03 E0= -.48844700E+03  d E =0.484513E-03  mag=    -0.0351
       N       E                     dE             d eps       ncg     rms          rms(c)
DAV:   1    -0.451962456493E+03   -0.16150E-02   -0.22562E+00  4272   0.181E+00    0.196E-01
DAV:   2    -0.451970633711E+03   -0.81772E-02   -0.36372E-02  4422   0.398E-01    0.846E-01
DAV:   3    -0.451968599857E+03    0.20339E-02   -0.89902E-03  4626   0.447E-01    0.647E-01
DAV:   4    -0.451966252948E+03    0.23469E-02   -0.36350E-03  4674   0.263E-01    0.374E-01
DAV:   5    -0.451965574997E+03    0.67795E-03   -0.19877E-03  4518   0.140E-01    0.227E-01
DAV:   6    -0.451965244802E+03    0.33019E-03   -0.57165E-04  2718   0.826E-02    0.110E-01
DAV:   7    -0.451965320738E+03   -0.75936E-04   -0.58426E-04  2736   0.787E-02
  28 F= -.48898941E+03 E0= -.48844775E+03  d E =-.801759E-03  mag=    -0.0381
       N       E                     dE             d eps       ncg     rms          rms(c)
DAV:   1    -0.451969956194E+03   -0.47114E-02   -0.22113E+00  4272   0.179E+00    0.267E-01
DAV:   2    -0.451993454365E+03   -0.23498E-01   -0.57680E-02  4518   0.648E-01    0.170E+00
DAV:   3    -0.451982295084E+03    0.11159E-01   -0.30279E-02  4644   0.760E-01    0.111E+00
DAV:   4    -0.451973704937E+03    0.85901E-02   -0.82265E-03  4650   0.436E-01    0.392E-01
DAV:   5    -0.451972857832E+03    0.84711E-03   -0.23802E-03  4512   0.149E-01    0.232E-01
DAV:   6    -0.451972556391E+03    0.30144E-03   -0.81041E-04  3048   0.946E-02    0.150E-01
DAV:   7    -0.451972562727E+03   -0.63363E-05   -0.62905E-04  2706   0.816E-02
  29 F= -.48898990E+03 E0= -.48844839E+03  d E =-.488901E-03  mag=    -0.0407
       N       E                     dE             d eps       ncg     rms          rms(c)
DAV:   1    -0.451974769486E+03   -0.22131E-02   -0.83628E-01  4278   0.107E+00    0.205E-01
DAV:   2    -0.451982285992E+03   -0.75165E-02   -0.24642E-02  4452   0.392E-01    0.988E-01
DAV:   3    -0.451976406269E+03    0.58797E-02   -0.12908E-02  4644   0.355E-01    0.296E-01
DAV:   4    -0.451976176263E+03    0.23001E-03   -0.19220E-03  4650   0.148E-01    0.263E-01
DAV:   5    -0.451976709299E+03   -0.53304E-03   -0.11390E-03  3360   0.170E-01    0.368E-01
DAV:   6    -0.451975799910E+03    0.90939E-03   -0.97588E-04  2880   0.145E-01    0.149E-01
DAV:   7    -0.451975694860E+03    0.10505E-03   -0.47279E-04  2532   0.721E-02    0.141E-01
DAV:   8    -0.451975628440E+03    0.66419E-04   -0.51331E-04  2508   0.684E-02
  30 F= -.48898982E+03 E0= -.48844814E+03  d E =0.760030E-04  mag=    -0.0453
       N       E                     dE             d eps       ncg     rms          rms(c)
DAV:   1    -0.451964518504E+03    0.11176E-01   -0.10622E+01  4272   0.355E+00    0.424E-01
DAV:   2    -0.451984928417E+03   -0.20410E-01   -0.18587E-01  4296   0.564E-01    0.750E-01
DAV:   3    -0.451994488754E+03   -0.95603E-02   -0.19832E-02  4722   0.605E-01    0.131E+00
DAV:   4    -0.451991628560E+03    0.28602E-02   -0.19769E-02  4716   0.686E-01    0.118E+00
DAV:   5    -0.451982078651E+03    0.95499E-02   -0.89224E-03  4722   0.388E-01    0.402E-01
DAV:   6    -0.451981992021E+03    0.86630E-04   -0.46557E-03  4764   0.217E-01    0.437E-01
DAV:   7    -0.451982370782E+03   -0.37876E-03   -0.55490E-03  4758   0.229E-01    0.486E-01
DAV:   8    -0.451981259861E+03    0.11109E-02   -0.37497E-03  4704   0.209E-01    0.286E-01
DAV:   9    -0.451980672767E+03    0.58709E-03   -0.12679E-03  4392   0.125E-01    0.139E-01
DAV:  10    -0.451980594448E+03    0.78319E-04   -0.49034E-04  2568   0.662E-02
  31 F= -.48899024E+03 E0= -.48844931E+03  d E =-.423309E-03  mag=    -0.0520
       N       E                     dE             d eps       ncg     rms          rms(c)
DAV:   1    -0.451216605371E+03    0.76407E+00   -0.22748E+02  4272   0.182E+01    0.231E+00
DAV:   2    -0.451670853446E+03   -0.45425E+00   -0.37613E+00  4374   0.320E+00    0.458E+00
DAV:   3    -0.452048531304E+03   -0.37768E+00   -0.82263E-01  4758   0.379E+00    0.816E+00
DAV:   4    -0.451591871035E+03    0.45666E+00   -0.96274E-01  4734   0.326E+00    0.314E+00
DAV:   5    -0.451571302315E+03    0.20569E-01   -0.22709E-01  4830   0.149E+00    0.323E+00
DAV:   6    -0.451531976112E+03    0.39326E-01   -0.18899E-01  4776   0.129E+00    0.203E+00
DAV:   7    -0.451524574074E+03    0.74020E-02   -0.11255E-01  4788   0.111E+00    0.187E+00
DAV:   8    -0.451518032666E+03    0.65414E-02   -0.92569E-02  4782   0.944E-01    0.178E+00
DAV:   9    -0.451502121893E+03    0.15911E-01   -0.44975E-02  4800   0.655E-01    0.814E-01
DAV:  10    -0.451498632786E+03    0.34891E-02   -0.10682E-02  4800   0.382E-01    0.489E-01
DAV:  11    -0.451497449305E+03    0.11835E-02   -0.46322E-03  4818   0.250E-01    0.364E-01
DAV:  12    -0.451496891890E+03    0.55742E-03   -0.26969E-03  4746   0.170E-01    0.277E-01
DAV:  13    -0.451496506251E+03    0.38564E-03   -0.12196E-03  3720   0.108E-01    0.166E-01
DAV:  14    -0.451496470185E+03    0.36065E-04   -0.73114E-04  2880   0.839E-02
  32 F= -.48851864E+03 E0= -.48797681E+03  d E =0.471599E+00  mag=    -0.0637
       N       E                     dE             d eps       ncg     rms          rms(c)
DAV:   1    -0.450806745938E+03    0.68976E+00   -0.19466E+02  4272   0.107E+01    0.472E+00
DAV:   2    -0.450921329169E+03   -0.11458E+00   -0.33328E+00  4392   0.250E+00    0.398E+00
DAV:   3    -0.454596505762E+03   -0.36752E+01   -0.20853E+00  5538   0.754E+00    0.204E+01
DAV:   4    -0.451096644263E+03    0.34999E+01   -0.28906E+00  5442   0.750E+00    0.586E+00
DAV:   5    -0.451105974461E+03   -0.93302E-02   -0.12432E+00  5166   0.369E+00    0.657E+00
DAV:   6    -0.450995101659E+03    0.11087E+00   -0.72044E-01  4884   0.274E+00    0.544E+00
DAV:   7    -0.450860791711E+03    0.13431E+00   -0.35599E-01  4818   0.199E+00    0.340E+00
DAV:   8    -0.450799964496E+03    0.60827E-01   -0.15094E-01  4824   0.129E+00    0.231E+00
DAV:   9    -0.450774471770E+03    0.25493E-01   -0.82953E-02  4884   0.914E-01    0.138E+00
DAV:  10    -0.450764360196E+03    0.10112E-01   -0.28147E-02  4812   0.539E-01    0.759E-01
DAV:  11    -0.450764206003E+03    0.15419E-03   -0.13582E-02  4776   0.375E-01    0.736E-01
DAV:  12    -0.450762997576E+03    0.12084E-02   -0.82266E-03  4740   0.294E-01    0.520E-01
DAV:  13    -0.450762643947E+03    0.35363E-03   -0.37058E-03  4722   0.212E-01    0.368E-01
DAV:  14    -0.450763795234E+03   -0.11513E-02   -0.25595E-03  4686   0.174E-01    0.411E-01
DAV:  15    -0.450763901719E+03   -0.10649E-03   -0.17687E-03  4410   0.129E-01    0.354E-01
DAV:  16    -0.450763662863E+03    0.23886E-03   -0.95509E-04  3090   0.961E-02    0.251E-01
DAV:  17    -0.450763654837E+03    0.80263E-05   -0.69983E-04  2886   0.106E-01
  33 F= -.48778698E+03 E0= -.48724745E+03  d E =0.731666E+00  mag=    -0.0816
       N       E                     dE             d eps       ncg     rms          rms(c)
DAV:   1    -0.451312423099E+03   -0.54876E+00   -0.11043E+01  4284   0.384E+00    0.103E+00
DAV:   2    -0.451400197255E+03   -0.87774E-01   -0.37507E-01  4428   0.119E+00    0.285E+00
DAV:   3    -0.451389414568E+03    0.10783E-01   -0.14101E-01  4878   0.161E+00    0.263E+00
DAV:   4    -0.451347455626E+03    0.41959E-01   -0.49984E-02  4902   0.994E-01    0.130E+00
DAV:   5    -0.451348637802E+03   -0.11822E-02   -0.58447E-02  4968   0.740E-01    0.147E+00
DAV:   6    -0.451346216571E+03    0.24212E-02   -0.39058E-02  4872   0.673E-01    0.125E+00
DAV:   7    -0.451336804079E+03    0.94125E-02   -0.19540E-02  4830   0.519E-01    0.665E-01
DAV:   8    -0.451335887102E+03    0.91698E-03   -0.99549E-03  4860   0.310E-01    0.615E-01
DAV:   9    -0.451333691234E+03    0.21959E-02   -0.59557E-03  4854   0.235E-01    0.262E-01
DAV:  10    -0.451333364790E+03    0.32644E-03   -0.17036E-03  4584   0.137E-01    0.203E-01
DAV:  11    -0.451333161174E+03    0.20362E-03   -0.63603E-04  2898   0.878E-02    0.160E-01
DAV:  12    -0.451332984978E+03    0.17620E-03   -0.26824E-04  2562   0.567E-02    0.113E-01
DAV:  13    -0.451332846517E+03    0.13846E-03   -0.15151E-04  2490   0.419E-02    0.886E-02
DAV:  14    -0.451332645382E+03    0.20113E-03   -0.11977E-04  2508   0.363E-02    0.656E-02
DAV:  15    -0.451332507407E+03    0.13798E-03   -0.73138E-05  2418   0.262E-02    0.400E-02
DAV:  16    -0.451332384489E+03    0.12292E-03   -0.26733E-05  2322   0.171E-02    0.254E-02
DAV:  17    -0.451332137706E+03    0.24678E-03   -0.12686E-05  2466   0.140E-02    0.334E-02
DAV:  18    -0.451332016965E+03    0.12074E-03   -0.55276E-06  2280   0.848E-03    0.230E-02
DAV:  19    -0.451331953304E+03    0.63661E-04   -0.26106E-06  2196   0.479E-03
  34 F= -.48835486E+03 E0= -.48781476E+03  d E =-.567884E+00  mag=    -0.1083
       N       E                     dE             d eps       ncg     rms          rms(c)
DAV:   1    -0.450177262508E+03    0.11548E+01   -0.19447E+02  4272   0.151E+01    0.692E+00
DAV:   2    -0.450815061558E+03   -0.63780E+00   -0.83402E+00  4398   0.284E+00    0.401E+00
DAV:   3    -0.452664793333E+03   -0.18497E+01   -0.16172E+00  5130   0.580E+00    0.165E+01
DAV:   4    -0.451746191395E+03    0.91860E+00   -0.53083E+00  5304   0.775E+00    0.115E+01
DAV:   5    -0.451103917391E+03    0.64227E+00   -0.25350E+00  5256   0.563E+00    0.865E+00
DAV:   6    -0.450716878872E+03    0.38704E+00   -0.98336E-01  4788   0.297E+00    0.441E+00
DAV:   7    -0.450676686888E+03    0.40192E-01   -0.47209E-01  4824   0.225E+00    0.405E+00
DAV:   8    -0.450583616181E+03    0.93071E-01   -0.24473E-01  4836   0.160E+00    0.221E+00
DAV:   9    -0.450551039140E+03    0.32577E-01   -0.71325E-02  4788   0.854E-01    0.107E+00
DAV:  10    -0.450546784007E+03    0.42551E-02   -0.24149E-02  4800   0.468E-01    0.836E-01
DAV:  11    -0.450545513610E+03    0.12704E-02   -0.13805E-02  4812   0.366E-01    0.802E-01
DAV:  12    -0.450543824277E+03    0.16893E-02   -0.96818E-03  4788   0.352E-01    0.690E-01
DAV:  13    -0.450542258555E+03    0.15657E-02   -0.61226E-03  4860   0.296E-01    0.592E-01
DAV:  14    -0.450540861065E+03    0.13975E-02   -0.55740E-03  4848   0.257E-01    0.501E-01
DAV:  15    -0.450539365282E+03    0.14958E-02   -0.30583E-03  4794   0.168E-01    0.183E-01
DAV:  16    -0.450539248464E+03    0.11682E-03   -0.83235E-04  4068   0.946E-02    0.174E-01
DAV:  17    -0.450539385593E+03   -0.13713E-03   -0.47150E-04  2832   0.769E-02    0.234E-01
DAV:  18    -0.450539086159E+03    0.29943E-03   -0.34206E-04  2712   0.669E-02    0.149E-01
DAV:  19    -0.450539000078E+03    0.86081E-04   -0.34208E-04  2712   0.565E-02
  35 F= -.48755856E+03 E0= -.48701634E+03  d E =0.796304E+00  mag=    -0.1465
       N       E                     dE             d eps       ncg     rms          rms(c)
DAV:   1    -0.451895736154E+03   -0.13566E+01   -0.31510E+01  4272   0.369E+00    0.256E+00
DAV:   2    -0.451887000964E+03    0.87352E-02   -0.59543E-01  4566   0.108E+00    0.198E+00
DAV:   3    -0.453551559713E+03   -0.16646E+01   -0.85906E-01  5904   0.495E+00    0.145E+01
DAV:   4    -0.451952813650E+03    0.15987E+01   -0.26166E+00  5796   0.482E+00    0.348E+00
DAV:   5    -0.451897274519E+03    0.55539E-01   -0.26576E-01  5142   0.165E+00    0.296E+00
DAV:   6    -0.451868218474E+03    0.29056E-01   -0.17187E-01  4890   0.125E+00    0.192E+00
DAV:   7    -0.451849599706E+03    0.18619E-01   -0.64308E-02  4830   0.819E-01    0.124E+00
DAV:   8    -0.451843146848E+03    0.64529E-02   -0.28134E-02  4788   0.522E-01    0.908E-01
DAV:   9    -0.451838784117E+03    0.43627E-02   -0.10599E-02  4758   0.327E-01    0.469E-01
DAV:  10    -0.451837949610E+03    0.83451E-03   -0.30426E-03  4716   0.171E-01    0.331E-01
DAV:  11    -0.451837577545E+03    0.37207E-03   -0.17195E-03  4542   0.136E-01    0.241E-01
DAV:  12    -0.451837272572E+03    0.30497E-03   -0.10121E-03  3726   0.115E-01    0.165E-01
DAV:  13    -0.451837126940E+03    0.14563E-03   -0.50764E-04  2712   0.757E-02    0.120E-01
DAV:  14    -0.451837143587E+03   -0.16646E-04   -0.55023E-04  2652   0.771E-02
  36 F= -.48885790E+03 E0= -.48831651E+03  d E =-.129934E+01  mag=    -0.1835
       N       E                     dE             d eps       ncg     rms          rms(c)
DAV:   1    -0.451904876186E+03   -0.67749E-01   -0.14956E+00  4278   0.970E-01    0.541E-01
DAV:   2    -0.451906619747E+03   -0.17436E-02   -0.35390E-02  4464   0.298E-01    0.584E-01
DAV:   3    -0.451913731877E+03   -0.71121E-02   -0.24938E-02  4902   0.515E-01    0.122E+00
DAV:   4    -0.451908451357E+03    0.52805E-02   -0.23442E-02  4782   0.484E-01    0.848E-01
DAV:   5    -0.451904429149E+03    0.40222E-02   -0.99569E-03  4884   0.365E-01    0.456E-01
DAV:   6    -0.451912640641E+03   -0.82115E-02   -0.73126E-03  4944   0.447E-01    0.114E+00
DAV:   7    -0.451902430699E+03    0.10210E-01   -0.61955E-03  4890   0.356E-01    0.191E-01
DAV:   8    -0.451902472129E+03   -0.41430E-04   -0.12917E-03  4128   0.120E-01    0.232E-01
DAV:   9    -0.451901997913E+03    0.47422E-03   -0.70394E-04  2862   0.889E-02    0.111E-01
DAV:  10    -0.451901851654E+03    0.14626E-03   -0.20020E-04  2526   0.448E-02    0.793E-02
DAV:  11    -0.451901698295E+03    0.15336E-03   -0.71122E-05  2346   0.260E-02    0.590E-02
DAV:  12    -0.451901502428E+03    0.19587E-03   -0.39362E-05  2394   0.214E-02    0.427E-02
DAV:  13    -0.451901186880E+03    0.31555E-03   -0.29102E-05  2526   0.185E-02    0.593E-02
DAV:  14    -0.451900957404E+03    0.22948E-03   -0.27449E-05  2388   0.151E-02    0.632E-02
DAV:  15    -0.451900506921E+03    0.45048E-03   -0.17359E-05  2538   0.132E-02    0.428E-02
DAV:  16    -0.451900304920E+03    0.20200E-03   -0.61778E-06  2340   0.805E-03    0.344E-02
DAV:  17    -0.451900373095E+03   -0.68175E-04   -0.17442E-06  2190   0.310E-03
  37 F= -.48892128E+03 E0= -.48838011E+03  d E =-.633825E-01  mag=    -0.2280
       N       E                     dE             d eps       ncg     rms          rms(c)
DAV:   1    -0.451916153007E+03   -0.15848E-01   -0.64228E-01  4296   0.734E-01    0.328E-01
DAV:   2    -0.451917417903E+03   -0.12649E-02   -0.15461E-02  4422   0.206E-01    0.454E-01
DAV:   3    -0.451931799405E+03   -0.14382E-01   -0.12087E-02  5484   0.562E-01    0.143E+00
DAV:   4    -0.451915697922E+03    0.16101E-01   -0.10538E-02  5250   0.492E-01    0.367E-01
DAV:   5    -0.451915885275E+03   -0.18735E-03   -0.42669E-03  4914   0.223E-01    0.433E-01
DAV:   6    -0.451914703582E+03    0.11817E-02   -0.28440E-03  4506   0.164E-01    0.250E-01
DAV:   7    -0.451914144205E+03    0.55938E-03   -0.11968E-03  3480   0.111E-01    0.172E-01
DAV:   8    -0.451913690387E+03    0.45382E-03   -0.53869E-04  2682   0.754E-02    0.136E-01
DAV:   9    -0.451913279002E+03    0.41138E-03   -0.21973E-04  2532   0.508E-02    0.661E-02
DAV:  10    -0.451913065826E+03    0.21318E-03   -0.65419E-05  2376   0.256E-02    0.527E-02
DAV:  11    -0.451912845465E+03    0.22036E-03   -0.24349E-05  2262   0.149E-02    0.424E-02
DAV:  12    -0.451912547201E+03    0.29826E-03   -0.93343E-06  2364   0.102E-02    0.427E-02
DAV:  13    -0.451912320761E+03    0.22644E-03   -0.41763E-06  2268   0.591E-03    0.442E-02
DAV:  14    -0.451912106405E+03    0.21436E-03   -0.25834E-06  2280   0.437E-03    0.436E-02
DAV:  15    -0.451912009585E+03    0.96820E-04   -0.77107E-07  2208   0.215E-03
  38 F= -.48893289E+03 E0= -.48839185E+03  d E =-.116120E-01  mag=    -0.2708
       N       E                     dE             d eps       ncg     rms          rms(c)
DAV:   1    -0.451916245224E+03   -0.41388E-02   -0.14663E-01  4308   0.452E-01    0.105E-01
DAV:   2    -0.451917910335E+03   -0.16651E-02   -0.35093E-03  4746   0.187E-01    0.535E-01
DAV:   3    -0.451915601354E+03    0.23090E-02   -0.18459E-03  4650   0.209E-01    0.152E-01
DAV:   4    -0.451915364252E+03    0.23710E-03   -0.44301E-04  2754   0.859E-02    0.164E-01
DAV:   5    -0.451914854189E+03    0.51006E-03   -0.43141E-04  2556   0.685E-02    0.106E-01
DAV:   6    -0.451914468148E+03    0.38604E-03   -0.24553E-04  2448   0.499E-02    0.941E-02
DAV:   7    -0.451913900038E+03    0.56811E-03   -0.14469E-04  2430   0.408E-02    0.676E-02
DAV:   8    -0.451913383402E+03    0.51664E-03   -0.72945E-05  2406   0.277E-02    0.668E-02
DAV:   9    -0.451912996353E+03    0.38705E-03   -0.36320E-05  2310   0.192E-02    0.489E-02
DAV:  10    -0.451912775969E+03    0.22038E-03   -0.83446E-06  2268   0.875E-03    0.446E-02
DAV:  11    -0.451912714543E+03    0.61426E-04   -0.15288E-06  2208   0.236E-03
  39 F= -.48893344E+03 E0= -.48839248E+03  d E =-.550710E-03  mag=    -0.3068
       N       E                     dE             d eps       ncg     rms          rms(c)
DAV:   1    -0.451924789775E+03   -0.12014E-01   -0.26353E+00  4284   0.197E+00    0.230E-01
DAV:   2    -0.451927407747E+03   -0.26180E-02   -0.38476E-02  4386   0.317E-01    0.254E-01
DAV:   3    -0.451932241024E+03   -0.48333E-02   -0.57802E-03  4674   0.322E-01    0.858E-01
DAV:   4    -0.451927447648E+03    0.47934E-02   -0.57215E-03  4680   0.373E-01    0.447E-01
DAV:   5    -0.451926366771E+03    0.10809E-02   -0.17297E-03  4296   0.175E-01    0.289E-01
DAV:   6    -0.451925762766E+03    0.60400E-03   -0.14156E-03  3684   0.118E-01    0.198E-01
DAV:   7    -0.451924917575E+03    0.84519E-03   -0.11914E-03  3690   0.112E-01    0.203E-01
DAV:   8    -0.451923813852E+03    0.11037E-02   -0.83909E-04  3156   0.962E-02    0.146E-01
DAV:   9    -0.451923191202E+03    0.62265E-03   -0.40045E-04  2484   0.622E-02    0.105E-01
DAV:  10    -0.451922772671E+03    0.41853E-03   -0.14596E-04  2382   0.368E-02    0.627E-02
DAV:  11    -0.451922331982E+03    0.44069E-03   -0.37878E-05  2310   0.189E-02    0.584E-02
DAV:  12    -0.451921982243E+03    0.34974E-03   -0.13645E-05  2268   0.114E-02    0.548E-02
DAV:  13    -0.451921823425E+03    0.15882E-03   -0.28393E-06  2208   0.446E-03    0.527E-02
DAV:  14    -0.451922238658E+03   -0.41523E-03   -0.38128E-06  2238   0.588E-03    0.573E-02
DAV:  15    -0.451923350163E+03   -0.11115E-02   -0.16543E-05  2388   0.112E-02    0.591E-02
DAV:  16    -0.451925341023E+03   -0.19909E-02   -0.31510E-05  2586   0.168E-02    0.585E-02
DAV:  17    -0.451930162956E+03   -0.48219E-02   -0.10191E-04  2760   0.238E-02    0.645E-02
DAV:  18    -0.451934365514E+03   -0.42026E-02   -0.11822E-04  2880   0.247E-02    0.650E-02
DAV:  19    -0.451936688491E+03   -0.23230E-02   -0.82773E-05  2622   0.230E-02    0.732E-02
DAV:  20    -0.451941881927E+03   -0.51934E-02   -0.21035E-04  2982   0.309E-02    0.728E-02
DAV:  21    -0.451946203939E+03   -0.43220E-02   -0.20496E-04  3054   0.339E-02    0.764E-02
DAV:  22    -0.451948575065E+03   -0.23711E-02   -0.14635E-04  2904   0.256E-02    0.749E-02
DAV:  23    -0.451948870679E+03   -0.29561E-03   -0.69881E-05  2592   0.217E-02    0.521E-02
DAV:  24    -0.451948771127E+03    0.99552E-04   -0.29450E-05  2610   0.146E-02
  40 F= -.48896871E+03 E0= -.48842781E+03  d E =-.352650E-01  mag=     0.0212
       N       E                     dE             d eps       ncg     rms          rms(c)
DAV:   1    -0.451958142800E+03   -0.92721E-02   -0.99930E+00  4308   0.381E+00    0.368E-01
DAV:   2    -0.451971515515E+03   -0.13373E-01   -0.13747E-01  4368   0.602E-01    0.439E-01
DAV:   3    -0.451974444166E+03   -0.29287E-02   -0.12470E-02  4524   0.362E-01    0.751E-01
DAV:   4    -0.451979970095E+03   -0.55259E-02   -0.12802E-02  4764   0.528E-01    0.113E+00
DAV:   5    -0.451971244719E+03    0.87254E-02   -0.59847E-03  4770   0.394E-01    0.431E-01
DAV:   6    -0.451970608014E+03    0.63670E-03   -0.31801E-03  4686   0.188E-01    0.305E-01
DAV:   7    -0.451971305041E+03   -0.69703E-03   -0.36506E-03  4782   0.191E-01    0.447E-01
DAV:   8    -0.451970605552E+03    0.69949E-03   -0.38643E-03  4764   0.184E-01    0.299E-01
DAV:   9    -0.451970199280E+03    0.40627E-03   -0.15062E-03  4476   0.120E-01    0.155E-01
DAV:  10    -0.451970117859E+03    0.81421E-04   -0.43430E-04  2556   0.649E-02
  41 F= -.48898840E+03 E0= -.48844760E+03  d E =-.196957E-01  mag=     0.0217
       N       E                     dE             d eps       ncg     rms          rms(c)
DAV:   1    -0.451972839276E+03   -0.26400E-02   -0.35150E+00  4284   0.228E+00    0.253E-01
DAV:   2    -0.451978894402E+03   -0.60551E-02   -0.52399E-02  4380   0.388E-01    0.496E-01
DAV:   3    -0.451982252180E+03   -0.33578E-02   -0.75060E-03  4722   0.373E-01    0.815E-01
DAV:   4    -0.451980289009E+03    0.19632E-02   -0.62443E-03  4644   0.399E-01    0.621E-01
DAV:   5    -0.451977888872E+03    0.24001E-02   -0.40469E-03  4542   0.251E-01    0.318E-01
DAV:   6    -0.451977579455E+03    0.30942E-03   -0.17458E-03  3744   0.129E-01    0.246E-01
DAV:   7    -0.451977570748E+03    0.87070E-05   -0.15231E-03  4188   0.120E-01    0.248E-01
DAV:   8    -0.451977529343E+03    0.41406E-04   -0.13961E-03  3768   0.123E-01    0.234E-01
DAV:   9    -0.451977170873E+03    0.35847E-03   -0.77126E-04  2964   0.917E-02    0.944E-02
DAV:  10    -0.451977129590E+03    0.41283E-04   -0.23841E-04  2412   0.435E-02
  42 F= -.48899458E+03 E0= -.48845373E+03  d E =-.617857E-02  mag=     0.0237
       N       E                     dE             d eps       ncg     rms          rms(c)
DAV:   1    -0.451977964436E+03   -0.79356E-03   -0.59391E-01  4314   0.936E-01    0.102E-01
DAV:   2    -0.451979245698E+03   -0.12813E-02   -0.95724E-03  4368   0.174E-01    0.259E-01
DAV:   3    -0.451979900633E+03   -0.65494E-03   -0.18125E-03  4620   0.192E-01    0.391E-01
DAV:   4    -0.451978973385E+03    0.92725E-03   -0.98527E-04  3288   0.156E-01    0.181E-01
DAV:   5    -0.451978798895E+03    0.17449E-03   -0.50232E-04  2502   0.756E-02    0.119E-01
DAV:   6    -0.451978738702E+03    0.60192E-04   -0.24080E-04  2454   0.519E-02
  43 F= -.48899577E+03 E0= -.48845505E+03  d E =-.119181E-02  mag=     0.0249
       N       E                     dE             d eps       ncg     rms          rms(c)
DAV:   1    -0.451979269400E+03   -0.47051E-03   -0.51947E-01  4314   0.860E-01    0.122E-01
DAV:   2    -0.451982224059E+03   -0.29547E-02   -0.10075E-02  4422   0.231E-01    0.590E-01
DAV:   3    -0.451981002291E+03    0.12218E-02   -0.33765E-03  4632   0.258E-01    0.365E-01
DAV:   4    -0.451980202774E+03    0.79952E-03   -0.12597E-03  3468   0.162E-01    0.197E-01
DAV:   5    -0.451980051739E+03    0.15103E-03   -0.57254E-04  2646   0.831E-02    0.154E-01
DAV:   6    -0.451979915962E+03    0.13578E-03   -0.35166E-04  2490   0.616E-02    0.880E-02
DAV:   7    -0.451979915435E+03    0.52723E-06   -0.24590E-04  2442   0.524E-02
  44 F= -.48899651E+03 E0= -.48845578E+03  d E =-.737949E-03  mag=     0.0270
       N       E                     dE             d eps       ncg     rms          rms(c)
DAV:   1    -0.451978563821E+03    0.13521E-02   -0.22883E+00  4272   0.174E+00    0.226E-01
DAV:   2    -0.451985521831E+03   -0.69580E-02   -0.43838E-02  4296   0.372E-01    0.740E-01
DAV:   3    -0.451982819446E+03    0.27024E-02   -0.10082E-02  4572   0.314E-01    0.367E-01
DAV:   4    -0.451984549818E+03   -0.17304E-02   -0.37208E-03  4728   0.248E-01    0.586E-01
DAV:   5    -0.451982706581E+03    0.18432E-02   -0.26398E-03  4284   0.251E-01    0.328E-01
DAV:   6    -0.451982007743E+03    0.69884E-03   -0.10453E-03  3240   0.133E-01    0.166E-01
DAV:   7    -0.451982037678E+03   -0.29936E-04   -0.83639E-04  3186   0.968E-02
  45 F= -.48899758E+03 E0= -.48845672E+03  d E =-.106913E-02  mag=     0.0292
       N       E                     dE             d eps       ncg     rms          rms(c)
DAV:   1    -0.451971081493E+03    0.10926E-01   -0.10337E+01  4272   0.336E+00    0.503E-01
DAV:   2    -0.452009360533E+03   -0.38279E-01   -0.20768E-01  4302   0.786E-01    0.183E+00
DAV:   3    -0.452000326058E+03    0.90345E-02   -0.46759E-02  4698   0.847E-01    0.131E+00
DAV:   4    -0.451997936488E+03    0.23896E-02   -0.19461E-02  4662   0.706E-01    0.121E+00
DAV:   5    -0.451989598193E+03    0.83383E-02   -0.12725E-02  4644   0.450E-01    0.590E-01
DAV:   6    -0.451987542055E+03    0.20561E-02   -0.62535E-03  4698   0.262E-01    0.346E-01
DAV:   7    -0.451989139173E+03   -0.15971E-02   -0.64065E-03  4710   0.248E-01    0.609E-01
DAV:   8    -0.451987920294E+03    0.12189E-02   -0.70507E-03  4722   0.253E-01    0.392E-01
DAV:   9    -0.451986785723E+03    0.11346E-02   -0.22990E-03  4596   0.162E-01    0.126E-01
DAV:  10    -0.451986680411E+03    0.10531E-03   -0.43713E-04  2736   0.732E-02    0.903E-02
DAV:  11    -0.451986668829E+03    0.11583E-04   -0.21458E-04  2400   0.471E-02
  46 F= -.48899918E+03 E0= -.48845846E+03  d E =-.159759E-02  mag=     0.0336
       N       E                     dE             d eps       ncg     rms          rms(c)
DAV:   1    -0.450416304491E+03    0.15704E+01   -0.19019E+02  4272   0.137E+01    0.364E+00
DAV:   2    -0.450651105477E+03   -0.23480E+00   -0.36241E+00  4308   0.262E+00    0.314E+00
DAV:   3    -0.450820094127E+03   -0.16899E+00   -0.59163E-01  4800   0.273E+00    0.609E+00
DAV:   4    -0.450719592426E+03    0.10050E+00   -0.89162E-01  4746   0.280E+00    0.457E+00
DAV:   5    -0.450757202271E+03   -0.37610E-01   -0.48359E-01  4758   0.248E+00    0.501E+00
DAV:   6    -0.451063938754E+03   -0.30674E+00   -0.61659E-01  4908   0.354E+00    0.801E+00
DAV:   7    -0.450592622079E+03    0.47132E+00   -0.65138E-01  4986   0.259E+00    0.221E+00
DAV:   8    -0.450580423495E+03    0.12199E-01   -0.12859E-01  4836   0.113E+00    0.204E+00
DAV:   9    -0.450560379613E+03    0.20044E-01   -0.64853E-02  4812   0.819E-01    0.101E+00
DAV:  10    -0.450555168424E+03    0.52112E-02   -0.17193E-02  4710   0.410E-01    0.625E-01
DAV:  11    -0.450553643129E+03    0.15253E-02   -0.56322E-03  4716   0.237E-01    0.355E-01
DAV:  12    -0.450554071140E+03   -0.42801E-03   -0.25519E-03  4710   0.185E-01    0.293E-01
DAV:  13    -0.450554754386E+03   -0.68325E-03   -0.19624E-03  4584   0.148E-01    0.291E-01
DAV:  14    -0.450555355345E+03   -0.60096E-03   -0.20735E-03  4320   0.138E-01    0.320E-01
DAV:  15    -0.450555405617E+03   -0.50272E-04   -0.15625E-03  3906   0.119E-01    0.176E-01
DAV:  16    -0.450555540481E+03   -0.13486E-03   -0.48485E-04  2772   0.761E-02    0.904E-02
DAV:  17    -0.450555755040E+03   -0.21456E-03   -0.23889E-04  2598   0.470E-02    0.924E-02
DAV:  18    -0.450555882378E+03   -0.12734E-03   -0.13444E-04  2526   0.343E-02    0.618E-02
DAV:  19    -0.450556084953E+03   -0.20257E-03   -0.66450E-05  2544   0.254E-02    0.556E-02
DAV:  20    -0.450556445555E+03   -0.36060E-03   -0.74462E-05  2562   0.219E-02    0.559E-02
DAV:  21    -0.450556671903E+03   -0.22635E-03   -0.54363E-05  2634   0.195E-02    0.427E-02
DAV:  22    -0.450556819336E+03   -0.14743E-03   -0.32770E-05  2556   0.151E-02    0.269E-02
DAV:  23    -0.450556929464E+03   -0.11013E-03   -0.24347E-05  2622   0.124E-02    0.189E-02
DAV:  24    -0.450556976904E+03   -0.47440E-04   -0.11600E-05  2448   0.831E-03
  47 F= -.48757249E+03 E0= -.48703249E+03  d E =0.142669E+01  mag=     0.0507
       N       E                     dE             d eps       ncg     rms          rms(c)
DAV:   1    -0.451652755488E+03   -0.10958E+01   -0.55679E+01  4272   0.866E+00    0.246E+00
DAV:   2    -0.451807324462E+03   -0.15457E+00   -0.17685E+00  4314   0.165E+00    0.223E+00
DAV:   3    -0.452600515470E+03   -0.79319E+00   -0.54737E-01  5232   0.359E+00    0.105E+01
DAV:   4    -0.451830450156E+03    0.77007E+00   -0.11776E+00  5178   0.372E+00    0.269E+00
DAV:   5    -0.451878727433E+03   -0.48277E-01   -0.22843E-01  5082   0.201E+00    0.433E+00
DAV:   6    -0.451786539474E+03    0.92188E-01   -0.23963E-01  4890   0.142E+00    0.213E+00
DAV:   7    -0.451766440832E+03    0.20099E-01   -0.83272E-02  4908   0.947E-01    0.155E+00
DAV:   8    -0.451754030148E+03    0.12411E-01   -0.39393E-02  4932   0.674E-01    0.992E-01
DAV:   9    -0.451749044965E+03    0.49852E-02   -0.19151E-02  4878   0.448E-01    0.622E-01
DAV:  10    -0.451747934932E+03    0.11100E-02   -0.97047E-03  4818   0.309E-01    0.513E-01
DAV:  11    -0.451746641782E+03    0.12931E-02   -0.43765E-03  4818   0.207E-01    0.300E-01
DAV:  12    -0.451746093154E+03    0.54863E-03   -0.15116E-03  4386   0.131E-01    0.158E-01
DAV:  13    -0.451746202914E+03   -0.10976E-03   -0.90727E-04  3306   0.992E-02    0.215E-01
DAV:  14    -0.451746113343E+03    0.89572E-04   -0.81116E-04  2880   0.908E-02
  48 F= -.48876218E+03 E0= -.48822128E+03  d E =-.118969E+01  mag=     0.0626
       N       E                     dE             d eps       ncg     rms          rms(c)
DAV:   1    -0.450825930946E+03    0.92027E+00   -0.11450E+02  4272   0.105E+01    0.529E+00
DAV:   2    -0.451096785338E+03   -0.27085E+00   -0.40132E+00  4476   0.217E+00    0.331E+00
DAV:   3    -0.455667085021E+03   -0.45703E+01   -0.21159E+00  5850   0.816E+00    0.228E+01
DAV:   4    -0.451263886093E+03    0.44032E+01   -0.31118E+00  5742   0.827E+00    0.555E+00
DAV:   5    -0.451166721936E+03    0.97164E-01   -0.10716E+00  5328   0.326E+00    0.562E+00
DAV:   6    -0.451072523389E+03    0.94199E-01   -0.53683E-01  4806   0.224E+00    0.415E+00
DAV:   7    -0.450983365897E+03    0.89157E-01   -0.24302E-01  4890   0.166E+00    0.242E+00
DAV:   8    -0.450945608060E+03    0.37758E-01   -0.92079E-02  4980   0.106E+00    0.149E+00
DAV:   9    -0.450934088953E+03    0.11519E-01   -0.37098E-02  4878   0.617E-01    0.834E-01
DAV:  10    -0.450931702920E+03    0.23860E-02   -0.15608E-02  4812   0.411E-01    0.698E-01
DAV:  11    -0.450931240193E+03    0.46273E-03   -0.11854E-02  4860   0.360E-01    0.728E-01
DAV:  12    -0.450928335813E+03    0.29044E-02   -0.69144E-03  4788   0.255E-01    0.374E-01
DAV:  13    -0.450927963603E+03    0.37221E-03   -0.27508E-03  4860   0.180E-01    0.322E-01
DAV:  14    -0.450928040968E+03   -0.77365E-04   -0.22845E-03  4416   0.152E-01    0.350E-01
DAV:  15    -0.450928020977E+03    0.19991E-04   -0.12599E-03  3780   0.113E-01    0.327E-01
DAV:  16    -0.450927880180E+03    0.14080E-03   -0.52010E-04  2964   0.750E-02    0.277E-01
DAV:  17    -0.450927456798E+03    0.42338E-03   -0.21892E-04  2754   0.711E-02    0.108E-01
DAV:  18    -0.450927548846E+03   -0.92047E-04   -0.32840E-04  2748   0.697E-02
  49 F= -.48794172E+03 E0= -.48739909E+03  d E =0.820463E+00  mag=     0.0826
       N       E                     dE             d eps       ncg     rms          rms(c)
DAV:   1    -0.452013763357E+03   -0.10863E+01   -0.73443E+01  4272   0.580E+00    0.362E+00
DAV:   2    -0.452116215858E+03   -0.10245E+00   -0.13337E+00  4584   0.192E+00    0.455E+00
DAV:   3    -0.454099542655E+03   -0.19833E+01   -0.16277E+00  5718   0.618E+00    0.162E+01
DAV:   4    -0.452133106043E+03    0.19664E+01   -0.25333E+00  5520   0.550E+00    0.458E+00
DAV:   5    -0.452058234497E+03    0.74872E-01   -0.56154E-01  5106   0.257E+00    0.432E+00
DAV:   6    -0.452017781904E+03    0.40453E-01   -0.33949E-01  4980   0.179E+00    0.342E+00
DAV:   7    -0.451959015131E+03    0.58767E-01   -0.13987E-01  4842   0.120E+00    0.205E+00
DAV:   8    -0.451937473885E+03    0.21541E-01   -0.48462E-02  4860   0.712E-01    0.141E+00
DAV:   9    -0.451928723291E+03    0.87506E-02   -0.24937E-02  4848   0.514E-01    0.893E-01
DAV:  10    -0.451926156112E+03    0.25672E-02   -0.13609E-02  4866   0.399E-01    0.662E-01
DAV:  11    -0.451925757309E+03    0.39880E-03   -0.11133E-02  4878   0.337E-01    0.582E-01
DAV:  12    -0.451924491312E+03    0.12660E-02   -0.48811E-03  4800   0.230E-01    0.345E-01
DAV:  13    -0.451923975041E+03    0.51627E-03   -0.14602E-03  4416   0.126E-01    0.200E-01
DAV:  14    -0.451924219454E+03   -0.24441E-03   -0.92603E-04  3162   0.117E-01    0.230E-01
DAV:  15    -0.451924407074E+03   -0.18762E-03   -0.71141E-04  2856   0.860E-02    0.218E-01
DAV:  16    -0.451924539434E+03   -0.13236E-03   -0.32490E-04  2598   0.604E-02    0.205E-01
DAV:  17    -0.451924479229E+03    0.60205E-04   -0.28396E-04  2592   0.590E-02
  50 F= -.48894024E+03 E0= -.48839876E+03  d E =-.998522E+00  mag=     0.1070
       N       E                     dE             d eps       ncg     rms          rms(c)
DAV:   1    -0.451961320784E+03   -0.36781E-01   -0.10278E+00  4290   0.943E-01    0.410E-01
DAV:   2    -0.451967807117E+03   -0.64863E-02   -0.30978E-02  4470   0.329E-01    0.807E-01
DAV:   3    -0.451978840260E+03   -0.11033E-01   -0.18877E-02  5298   0.657E-01    0.143E+00
DAV:   4    -0.451969312020E+03    0.95282E-02   -0.17168E-02  5250   0.619E-01    0.938E-01
DAV:   5    -0.451963963232E+03    0.53488E-02   -0.11768E-02  5142   0.350E-01    0.446E-01
DAV:   6    -0.451963442301E+03    0.52093E-03   -0.42881E-03  5028   0.224E-01    0.369E-01
DAV:   7    -0.451962760723E+03    0.68158E-03   -0.22823E-03  4824   0.168E-01    0.256E-01
DAV:   8    -0.451962454419E+03    0.30630E-03   -0.11886E-03  3204   0.112E-01    0.208E-01
DAV:   9    -0.451962098670E+03    0.35575E-03   -0.53106E-04  2622   0.749E-02    0.974E-02
DAV:  10    -0.451961951231E+03    0.14744E-03   -0.13980E-04  2484   0.421E-02    0.680E-02
DAV:  11    -0.451961825477E+03    0.12575E-03   -0.61407E-05  2400   0.256E-02    0.542E-02
DAV:  12    -0.451961706333E+03    0.11914E-03   -0.32988E-05  2304   0.177E-02    0.373E-02
DAV:  13    -0.451961588608E+03    0.11773E-03   -0.16416E-05  2322   0.125E-02    0.349E-02
DAV:  14    -0.451961449287E+03    0.13932E-03   -0.11181E-05  2310   0.103E-02    0.263E-02
DAV:  15    -0.451961235593E+03    0.21369E-03   -0.55722E-06  2406   0.790E-03    0.210E-02
DAV:  16    -0.451961128825E+03    0.10677E-03   -0.21509E-06  2214   0.478E-03    0.207E-02
DAV:  17    -0.451961123642E+03    0.51833E-05   -0.39977E-07  2202   0.981E-04
  51 F= -.48897669E+03 E0= -.48843523E+03  d E =-.364520E-01  mag=     0.1323
       N       E                     dE             d eps       ncg     rms          rms(c)
DAV:   1    -0.451970348947E+03   -0.92201E-02   -0.75798E-01  4290   0.828E-01    0.343E-01
DAV:   2    -0.451971548286E+03   -0.11993E-02   -0.18523E-02  4410   0.183E-01    0.316E-01
DAV:   3    -0.451999388484E+03   -0.27840E-01   -0.17392E-02  5760   0.657E-01    0.192E+00
DAV:   4    -0.451971985062E+03    0.27403E-01   -0.16153E-02  5814   0.650E-01    0.434E-01
DAV:   5    -0.451971384979E+03    0.60008E-03   -0.48657E-03  4968   0.245E-01    0.442E-01
DAV:   6    -0.451970341032E+03    0.10439E-02   -0.27980E-03  4716   0.164E-01    0.243E-01
DAV:   7    -0.451969938249E+03    0.40278E-03   -0.10273E-03  3642   0.108E-01    0.183E-01
DAV:   8    -0.451969660064E+03    0.27818E-03   -0.54478E-04  2694   0.774E-02    0.144E-01
DAV:   9    -0.451969409641E+03    0.25042E-03   -0.24132E-04  2532   0.516E-02    0.678E-02
DAV:  10    -0.451969301873E+03    0.10777E-03   -0.72197E-05  2316   0.264E-02    0.490E-02
DAV:  11    -0.451969169486E+03    0.13239E-03   -0.29346E-05  2256   0.171E-02    0.337E-02
DAV:  12    -0.451968991780E+03    0.17771E-03   -0.10022E-05  2346   0.111E-02    0.262E-02
DAV:  13    -0.451968812487E+03    0.17929E-03   -0.64155E-06  2274   0.836E-03    0.278E-02
DAV:  14    -0.451968623365E+03    0.18912E-03   -0.63596E-06  2286   0.720E-03    0.276E-02
DAV:  15    -0.451968448099E+03    0.17527E-03   -0.28002E-06  2238   0.482E-03    0.250E-02
DAV:  16    -0.451968446633E+03    0.14658E-05   -0.42195E-07  2202   0.932E-04
  52 F= -.48898375E+03 E0= -.48844222E+03  d E =-.705571E-02  mag=     0.1633
       N       E                     dE             d eps       ncg     rms          rms(c)
DAV:   1    -0.451969643590E+03   -0.11955E-02   -0.20050E-02  4314   0.168E-01    0.418E-02
DAV:   2    -0.451969396609E+03    0.24698E-03   -0.35520E-04  3234   0.433E-02    0.103E-01
DAV:   3    -0.451969350167E+03    0.46442E-04   -0.15562E-04  2496   0.607E-02
  53 F= -.48898458E+03 E0= -.48844321E+03  d E =-.831097E-03  mag=     0.1700
       N       E                     dE             d eps       ncg     rms          rms(c)
DAV:   1    -0.451974678054E+03   -0.52814E-02   -0.13627E+00  4296   0.141E+00    0.211E-01
DAV:   2    -0.451979000538E+03   -0.43225E-02   -0.23088E-02  4386   0.311E-01    0.683E-01
DAV:   3    -0.451977734358E+03    0.12662E-02   -0.64102E-03  4638   0.340E-01    0.526E-01
DAV:   4    -0.451977219679E+03    0.51468E-03   -0.34502E-03  4644   0.284E-01    0.492E-01
DAV:   5    -0.451975745880E+03    0.14738E-02   -0.23701E-03  4458   0.175E-01    0.234E-01
DAV:   6    -0.451975444008E+03    0.30187E-03   -0.10959E-03  3702   0.124E-01    0.191E-01
DAV:   7    -0.451975277428E+03    0.16658E-03   -0.12464E-03  3468   0.114E-01    0.244E-01
DAV:   8    -0.451974689668E+03    0.58776E-03   -0.11739E-03  2844   0.102E-01    0.154E-01
DAV:   9    -0.451974287290E+03    0.40238E-03   -0.40354E-04  2502   0.673E-02    0.752E-02
DAV:  10    -0.451974071844E+03    0.21545E-03   -0.10955E-04  2346   0.355E-02    0.499E-02
DAV:  11    -0.451973931900E+03    0.13994E-03   -0.37540E-05  2226   0.190E-02    0.396E-02
DAV:  12    -0.451973770277E+03    0.16162E-03   -0.13914E-05  2238   0.119E-02    0.342E-02
DAV:  13    -0.451973635809E+03    0.13447E-03   -0.54037E-06  2190   0.706E-03    0.318E-02
DAV:  14    -0.451973560164E+03    0.75645E-04   -0.14627E-06  2202   0.323E-03
  54 F= -.48898820E+03 E0= -.48844692E+03  d E =-.361518E-02  mag=     0.2016
       N       E                     dE             d eps       ncg     rms          rms(c)
DAV:   1    -0.451973205346E+03    0.43046E-03   -0.58793E+00  4272   0.295E+00    0.353E-01
DAV:   2    -0.451980948445E+03   -0.77431E-02   -0.86558E-02  4356   0.472E-01    0.388E-01
DAV:   3    -0.451994674092E+03   -0.13726E-01   -0.15865E-02  4686   0.531E-01    0.138E+00
DAV:   4    -0.451982959864E+03    0.11714E-01   -0.14635E-02  4698   0.591E-01    0.733E-01
DAV:   5    -0.451979771086E+03    0.31888E-02   -0.41454E-03  4722   0.244E-01    0.323E-01
DAV:   6    -0.451979820824E+03   -0.49739E-04   -0.35418E-03  4722   0.185E-01    0.352E-01
DAV:   7    -0.451979410887E+03    0.40994E-03   -0.31354E-03  4728   0.176E-01    0.348E-01
DAV:   8    -0.451978428648E+03    0.98224E-03   -0.23362E-03  4584   0.153E-01    0.232E-01
DAV:   9    -0.451977920563E+03    0.50808E-03   -0.94548E-04  3114   0.973E-02    0.131E-01
DAV:  10    -0.451977674627E+03    0.24594E-03   -0.31886E-04  2466   0.567E-02    0.834E-02
DAV:  11    -0.451977445746E+03    0.22888E-03   -0.12497E-04  2298   0.348E-02    0.621E-02
DAV:  12    -0.451977192003E+03    0.25374E-03   -0.45633E-05  2262   0.228E-02    0.480E-02
DAV:  13    -0.451976977350E+03    0.21465E-03   -0.14006E-05  2220   0.128E-02    0.412E-02
DAV:  14    -0.451976867699E+03    0.10965E-03   -0.46679E-06  2196   0.554E-03    0.390E-02
DAV:  15    -0.451976788571E+03    0.79128E-04   -0.12532E-06  2196   0.235E-03
  55 F= -.48899039E+03 E0= -.48844957E+03  d E =-.219909E-02  mag=     0.2418
       N       E                     dE             d eps       ncg     rms          rms(c)
DAV:   1    -0.451977566512E+03   -0.69881E-03   -0.48751E-01  4278   0.830E-01    0.953E-02
DAV:   2    -0.451978004502E+03   -0.43799E-03   -0.81620E-03  4344   0.144E-01    0.223E-01
DAV:   3    -0.451978310911E+03   -0.30641E-03   -0.12320E-03  3876   0.167E-01    0.331E-01
DAV:   4    -0.451977207796E+03    0.11031E-02   -0.64264E-04  2820   0.124E-01    0.128E-01
DAV:   5    -0.451977066713E+03    0.14108E-03   -0.24502E-04  2454   0.502E-02    0.864E-02
DAV:   6    -0.451976805293E+03    0.26142E-03   -0.17063E-04  2382   0.408E-02    0.816E-02
DAV:   7    -0.451976194611E+03    0.61068E-03   -0.15425E-04  2418   0.417E-02    0.955E-02
DAV:   8    -0.451975551882E+03    0.64273E-03   -0.14042E-04  2394   0.384E-02    0.856E-02
DAV:   9    -0.451975171028E+03    0.38085E-03   -0.65050E-05  2292   0.256E-02    0.527E-02
DAV:  10    -0.451974912086E+03    0.25894E-03   -0.16620E-05  2220   0.121E-02    0.457E-02
DAV:  11    -0.451974730231E+03    0.18186E-03   -0.52637E-06  2214   0.669E-03    0.411E-02
DAV:  12    -0.451974778075E+03   -0.47844E-04   -0.10870E-06  2202   0.178E-03
  56 F= -.48898851E+03 E0= -.48844771E+03  d E =0.188369E-02  mag=     0.2785
       N       E                     dE             d eps       ncg     rms          rms(c)
DAV:   1    -0.451964977362E+03    0.97529E-02   -0.90179E+00  4272   0.340E+00    0.387E-01
DAV:   2    -0.451979096776E+03   -0.14119E-01   -0.15492E-01  4332   0.503E-01    0.367E-01
DAV:   3    -0.451990843231E+03   -0.11746E-01   -0.12675E-02  4686   0.481E-01    0.131E+00
DAV:   4    -0.451980283927E+03    0.10559E-01   -0.12107E-02  4674   0.557E-01    0.660E-01
DAV:   5    -0.451978002129E+03    0.22818E-02   -0.43081E-03  4680   0.269E-01    0.395E-01
DAV:   6    -0.451977830197E+03    0.17193E-03   -0.46996E-03  4692   0.203E-01    0.412E-01
[...]
DAV:   9    -0.450861819266E+03    0.87279E-02   -0.31621E-02  4830   0.550E-01    0.714E-01
DAV:  10    -0.450860721366E+03    0.10979E-02   -0.14121E-02  4782   0.370E-01    0.638E-01
DAV:  11    -0.450859743358E+03    0.97801E-03   -0.97943E-03  4776   0.302E-01    0.504E-01
DAV:  12    -0.450858534131E+03    0.12092E-02   -0.44192E-03  4752   0.228E-01    0.305E-01
DAV:  13    -0.450857983160E+03    0.55097E-03   -0.18336E-03  4668   0.149E-01    0.175E-01
DAV:  14    -0.450858000378E+03   -0.17219E-04   -0.80279E-04  3486   0.955E-02
  69 F= -.48784335E+03 E0= -.48730108E+03  d E =0.120524E+01  mag=     0.0032
       N       E                     dE             d eps       ncg     rms          rms(c)
DAV:   1    -0.451711072695E+03   -0.85309E+00   -0.17014E+02  4272   0.928E+00    0.491E+00
DAV:   2    -0.451751947182E+03   -0.40874E-01   -0.28002E+00  4512   0.211E+00    0.384E+00
DAV:   3    -0.456895224632E+03   -0.51433E+01   -0.26560E+00  5814   0.883E+00    0.229E+01
DAV:   4    -0.452046613737E+03    0.48486E+01   -0.35503E+00  5592   0.855E+00    0.721E+00
DAV:   5    -0.451823862217E+03    0.22275E+00   -0.13087E+00  5232   0.361E+00    0.572E+00
DAV:   6    -0.451758550954E+03    0.65311E-01   -0.61684E-01  4938   0.251E+00    0.480E+00
DAV:   7    -0.451673017968E+03    0.85533E-01   -0.31418E-01  4824   0.187E+00    0.329E+00
DAV:   8    -0.451612337404E+03    0.60681E-01   -0.12005E-01  4848   0.115E+00    0.207E+00
DAV:   9    -0.451591245051E+03    0.21092E-01   -0.62285E-02  4902   0.797E-01    0.127E+00
DAV:  10    -0.451584523293E+03    0.67218E-02   -0.26125E-02  4866   0.519E-01    0.843E-01
DAV:  11    -0.451583235487E+03    0.12878E-02   -0.15302E-02  4848   0.397E-01    0.724E-01
DAV:  12    -0.451581913710E+03    0.13218E-02   -0.76882E-03  4776   0.276E-01    0.494E-01
DAV:  13    -0.451581241485E+03    0.67223E-03   -0.30935E-03  4764   0.192E-01    0.300E-01
DAV:  14    -0.451582631737E+03   -0.13903E-02   -0.20802E-03  4626   0.165E-01    0.385E-01
DAV:  15    -0.451582949940E+03   -0.31820E-03   -0.14924E-03  4356   0.120E-01    0.358E-01
DAV:  16    -0.451582827730E+03    0.12221E-03   -0.11951E-03  3120   0.104E-01    0.256E-01
DAV:  17    -0.451582746340E+03    0.81389E-04   -0.55436E-04  2748   0.844E-02
  70 F= -.48857188E+03 E0= -.48803173E+03  d E =-.728529E+00  mag=     0.0043
       N       E                     dE             d eps       ncg     rms          rms(c)
DAV:   1    -0.451894087859E+03   -0.31126E+00   -0.90062E+00  4296   0.319E+00    0.106E+00
DAV:   2    -0.451973946289E+03   -0.79858E-01   -0.29193E-01  4494   0.110E+00    0.286E+00
DAV:   3    -0.451960274885E+03    0.13671E-01   -0.13772E-01  4920   0.159E+00    0.254E+00
DAV:   4    -0.451936774918E+03    0.23500E-01   -0.69080E-02  5016   0.110E+00    0.197E+00
DAV:   5    -0.451917965055E+03    0.18810E-01   -0.65775E-02  5010   0.812E-01    0.112E+00
DAV:   6    -0.451919105198E+03   -0.11401E-02   -0.31461E-02  4884   0.610E-01    0.119E+00
DAV:   7    -0.451911698289E+03    0.74069E-02   -0.20902E-02  4860   0.482E-01    0.686E-01
DAV:   8    -0.451910192490E+03    0.15058E-02   -0.93419E-03  4812   0.282E-01    0.511E-01
DAV:   9    -0.451908677288E+03    0.15152E-02   -0.38682E-03  4914   0.194E-01    0.229E-01
DAV:  10    -0.451908577652E+03    0.99636E-04   -0.12543E-03  4374   0.119E-01    0.205E-01
DAV:  11    -0.451908458711E+03    0.11894E-03   -0.59144E-04  2844   0.813E-02    0.145E-01
DAV:  12    -0.451908364444E+03    0.94267E-04   -0.21418E-04  2502   0.505E-02
  71 F= -.48889683E+03 E0= -.48835633E+03  d E =-.324956E+00  mag=     0.0053
       N       E                     dE             d eps       ncg     rms          rms(c)
DAV:   1    -0.451964796099E+03   -0.56337E-01   -0.19180E+01  4272   0.434E+00    0.190E+00
DAV:   2    -0.452013784667E+03   -0.48989E-01   -0.64878E-01  4386   0.933E-01    0.144E+00
DAV:   3    -0.452707509442E+03   -0.69372E+00   -0.43018E-01  5730   0.317E+00    0.961E+00
DAV:   4    -0.452039064506E+03    0.66844E+00   -0.11423E+00  5700   0.327E+00    0.216E+00
DAV:   5    -0.452041339639E+03   -0.22751E-02   -0.13900E-01  5226   0.142E+00    0.275E+00
DAV:   6    -0.452008400117E+03    0.32940E-01   -0.10003E-01  4920   0.978E-01    0.158E+00
DAV:   7    -0.451996047457E+03    0.12353E-01   -0.39120E-02  4920   0.677E-01    0.107E+00
DAV:   8    -0.451989024318E+03    0.70231E-02   -0.15707E-02  4926   0.440E-01    0.561E-01
DAV:   9    -0.451987820101E+03    0.12042E-02   -0.75761E-03  4938   0.267E-01    0.412E-01
DAV:  10    -0.451987128706E+03    0.69140E-03   -0.38130E-03  4860   0.186E-01    0.264E-01
DAV:  11    -0.451986826616E+03    0.30209E-03   -0.12428E-03  3708   0.114E-01    0.179E-01
DAV:  12    -0.451986660509E+03    0.16611E-03   -0.50313E-04  2718   0.762E-02    0.951E-02
DAV:  13    -0.451986707372E+03   -0.46862E-04   -0.30838E-04  2532   0.592E-02
  72 F= -.48897513E+03 E0= -.48843399E+03  d E =-.782950E-01  mag=     0.0065
       N       E                     dE             d eps       ncg     rms          rms(c)
DAV:   1    -0.452036314239E+03   -0.49654E-01   -0.34783E+00  4272   0.156E+00    0.773E-01
DAV:   2    -0.452058919311E+03   -0.22605E-01   -0.91835E-02  4590   0.659E-01    0.171E+00
DAV:   3    -0.452081203347E+03   -0.22284E-01   -0.64216E-02  5274   0.117E+00    0.234E+00
DAV:   4    -0.452076027650E+03    0.51757E-02   -0.70979E-02  5310   0.117E+00    0.239E+00
DAV:   5    -0.452041207768E+03    0.34820E-01   -0.53126E-02  5112   0.733E-01    0.662E-01
DAV:   6    -0.452040780152E+03    0.42762E-03   -0.12124E-02  5004   0.428E-01    0.719E-01
DAV:   7    -0.452038451557E+03    0.23286E-02   -0.77344E-03  4788   0.288E-01    0.463E-01
DAV:   8    -0.452037177691E+03    0.12739E-02   -0.31780E-03  4866   0.190E-01    0.240E-01
DAV:   9    -0.452036953112E+03    0.22458E-03   -0.12909E-03  3834   0.114E-01    0.182E-01
DAV:  10    -0.452036793864E+03    0.15925E-03   -0.52893E-04  2598   0.717E-02    0.908E-02
DAV:  11    -0.452036782746E+03    0.11118E-04   -0.16544E-04  2436   0.436E-02
  73 F= -.48902564E+03 E0= -.48848461E+03  d E =-.505124E-01  mag=     0.0078
       N       E                     dE             d eps       ncg     rms          rms(c)
DAV:   1    -0.452044233583E+03   -0.74397E-02   -0.16194E-01  4308   0.469E-01    0.124E-01
DAV:   2    -0.452046636168E+03   -0.24026E-02   -0.60305E-03  4614   0.207E-01    0.586E-01
DAV:   3    -0.452044995770E+03    0.16404E-02   -0.34255E-03  4698   0.220E-01    0.265E-01
DAV:   4    -0.452044933189E+03    0.62581E-04   -0.10412E-03  2874   0.153E-01    0.269E-01
DAV:   5    -0.452044544529E+03    0.38866E-03   -0.50219E-04  2700   0.928E-02    0.125E-01
DAV:   6    -0.452044545510E+03   -0.98041E-06   -0.47152E-04  2592   0.718E-02
  74 F= -.48903374E+03 E0= -.48849260E+03  d E =-.810596E-02  mag=     0.0085
       N       E                     dE             d eps       ncg     rms          rms(c)
DAV:   1    -0.452068972083E+03   -0.24428E-01   -0.13567E+01  4272   0.434E+00    0.785E-01
DAV:   2    -0.452090496752E+03   -0.21525E-01   -0.23430E-01  4386   0.772E-01    0.103E+00
DAV:   3    -0.452111716759E+03   -0.21220E-01   -0.63627E-02  4722   0.849E-01    0.198E+00
DAV:   4    -0.452148559934E+03   -0.36843E-01   -0.73168E-02  5070   0.127E+00    0.289E+00
DAV:   5    -0.452088192958E+03    0.60367E-01   -0.45727E-02  5022   0.949E-01    0.686E-01
DAV:   6    -0.452088840614E+03   -0.64766E-03   -0.15716E-02  4818   0.455E-01    0.788E-01
DAV:   7    -0.452088312790E+03    0.52782E-03   -0.15261E-02  4908   0.403E-01    0.783E-01
DAV:   8    -0.452085847972E+03    0.24648E-02   -0.11098E-02  4818   0.318E-01    0.459E-01
DAV:   9    -0.452084569992E+03    0.12780E-02   -0.35621E-03  4830   0.195E-01    0.227E-01
DAV:  10    -0.452084290969E+03    0.27902E-03   -0.10952E-03  3924   0.105E-01    0.147E-01
DAV:  11    -0.452084162940E+03    0.12803E-03   -0.35957E-04  2634   0.627E-02    0.756E-02
DAV:  12    -0.452084136235E+03    0.26704E-04   -0.11991E-04  2316   0.378E-02
  75 F= -.48907687E+03 E0= -.48853590E+03  d E =-.431290E-01  mag=     0.0102
       N       E                     dE             d eps       ncg     rms          rms(c)
DAV:   1    -0.452089496843E+03   -0.53339E-02   -0.43701E+00  4284   0.248E+00    0.345E-01
DAV:   2    -0.452098323461E+03   -0.88266E-02   -0.72862E-02  4434   0.451E-01    0.683E-01
DAV:   3    -0.452109805964E+03   -0.11483E-01   -0.17551E-02  4794   0.618E-01    0.138E+00
DAV:   4    -0.452098665856E+03    0.11140E-01   -0.12705E-02  4794   0.536E-01    0.731E-01
DAV:   5    -0.452095869497E+03    0.27964E-02   -0.73750E-03  4836   0.267E-01    0.347E-01
DAV:   6    -0.452095467070E+03    0.40243E-03   -0.25968E-03  4728   0.168E-01    0.274E-01
DAV:   7    -0.452095739266E+03   -0.27220E-03   -0.28708E-03  4644   0.163E-01    0.344E-01
DAV:   8    -0.452095323118E+03    0.41615E-03   -0.21365E-03  4326   0.141E-01    0.220E-01
DAV:   9    -0.452095103814E+03    0.21930E-03   -0.90574E-04  2934   0.970E-02    0.153E-01
DAV:  10    -0.452094966146E+03    0.13767E-03   -0.34314E-04  2484   0.583E-02    0.672E-02
DAV:  11    -0.452094943768E+03    0.22377E-04   -0.98876E-05  2298   0.324E-02
  76 F= -.48908897E+03 E0= -.48854807E+03  d E =-.120977E-01  mag=     0.0122
       N       E                     dE             d eps       ncg     rms          rms(c)
DAV:   1    -0.452098583871E+03   -0.36177E-02   -0.32207E+00  4284   0.207E+00    0.284E-01
DAV:   2    -0.452105288383E+03   -0.67045E-02   -0.56558E-02  4344   0.374E-01    0.573E-01
DAV:   3    -0.452109356292E+03   -0.40679E-02   -0.10118E-02  4722   0.426E-01    0.903E-01
DAV:   4    -0.452107895071E+03    0.14612E-02   -0.86162E-03  4686   0.455E-01    0.811E-01
DAV:   5    -0.452103600486E+03    0.42946E-02   -0.49485E-03  4638   0.270E-01    0.243E-01
DAV:   6    -0.452103488156E+03    0.11233E-03   -0.16911E-03  4542   0.141E-01    0.224E-01
DAV:   7    -0.452103488744E+03   -0.58771E-06   -0.16272E-03  4422   0.136E-01    0.229E-01
DAV:   8    -0.452103434866E+03    0.53878E-04   -0.14334E-03  3612   0.118E-01    0.224E-01
DAV:   9    -0.452103169451E+03    0.26542E-03   -0.73027E-04  2760   0.850E-02    0.108E-01
DAV:  10    -0.452103097359E+03    0.72092E-04   -0.20222E-04  2376   0.443E-02
  77 F= -.48909663E+03 E0= -.48855585E+03  d E =-.765379E-02  mag=     0.0143
       N       E                     dE             d eps       ncg     rms          rms(c)
DAV:   1    -0.452083251519E+03    0.19918E-01   -0.27169E+01  4272   0.566E+00    0.932E-01
DAV:   2    -0.452129741247E+03   -0.46490E-01   -0.49574E-01  4332   0.937E-01    0.962E-01
DAV:   3    -0.452184679618E+03   -0.54938E-01   -0.77693E-02  4764   0.110E+00    0.289E+00
DAV:   4    -0.452160138279E+03    0.24541E-01   -0.88734E-02  4758   0.134E+00    0.215E+00
DAV:   5    -0.452136607527E+03    0.23531E-01   -0.49652E-02  4758   0.942E-01    0.133E+00
DAV:   6    -0.452130819113E+03    0.57884E-02   -0.28433E-02  4764   0.582E-01    0.942E-01
DAV:   7    -0.452127580521E+03    0.32386E-02   -0.17036E-02  4728   0.462E-01    0.653E-01
DAV:   8    -0.452127599002E+03   -0.18481E-04   -0.13420E-02  4758   0.360E-01    0.703E-01
DAV:   9    -0.452124768999E+03    0.28300E-02   -0.71146E-03  4764   0.252E-01    0.275E-01
DAV:  10    -0.452124371244E+03    0.39776E-03   -0.14418E-03  4356   0.115E-01    0.175E-01
DAV:  11    -0.452124277597E+03    0.93646E-04   -0.55457E-04  2730   0.800E-02
  78 F= -.48911522E+03 E0= -.48857492E+03  d E =-.185995E-01  mag=     0.0170
       N       E                     dE             d eps       ncg     rms          rms(c)
DAV:   1    -0.452045499993E+03    0.78871E-01   -0.55182E+01  4272   0.756E+00    0.141E+00
DAV:   2    -0.452151521460E+03   -0.10602E+00   -0.11244E+00  4326   0.123E+00    0.141E+00
DAV:   3    -0.452246720873E+03   -0.95199E-01   -0.13970E-01  4770   0.146E+00    0.387E+00
DAV:   4    -0.452225269000E+03    0.21452E-01   -0.21189E-01  4956   0.192E+00    0.324E+00
DAV:   5    -0.452180293192E+03    0.44976E-01   -0.13118E-01  4944   0.154E+00    0.240E+00
DAV:   6    -0.452156623037E+03    0.23670E-01   -0.66861E-02  4842   0.932E-01    0.141E+00
DAV:   7    -0.452147629187E+03    0.89938E-02   -0.35586E-02  4794   0.693E-01    0.950E-01
DAV:   8    -0.452147883409E+03   -0.25422E-03   -0.27138E-02  4854   0.524E-01    0.105E+00
DAV:   9    -0.452141214634E+03    0.66688E-02   -0.14831E-02  4740   0.363E-01    0.329E-01
DAV:  10    -0.452140652278E+03    0.56236E-03   -0.26354E-03  4692   0.154E-01    0.223E-01
DAV:  11    -0.452140698861E+03   -0.46583E-04   -0.11408E-03  3642   0.106E-01    0.242E-01
DAV:  12    -0.452140448255E+03    0.25061E-03   -0.77469E-04  2790   0.915E-02    0.159E-01
DAV:  13    -0.452140329854E+03    0.11840E-03   -0.30383E-04  2502   0.588E-02    0.971E-02
DAV:  14    -0.452140307292E+03    0.22562E-04   -0.17512E-04  2442   0.449E-02
  79 F= -.48913031E+03 E0= -.48859014E+03  d E =-.150832E-01  mag=     0.0213
       N       E                     dE             d eps       ncg     rms          rms(c)
DAV:   1    -0.452093499933E+03    0.46830E-01   -0.34272E+01  4272   0.683E+00    0.733E-01
DAV:   2    -0.452165458904E+03   -0.71959E-01   -0.66110E-01  4296   0.100E+00    0.125E+00
DAV:   3    -0.452236089692E+03   -0.70631E-01   -0.77516E-02  4890   0.134E+00    0.322E+00
DAV:   4    -0.452163455655E+03    0.72634E-01   -0.74405E-02  4890   0.116E+00    0.115E+00
DAV:   5    -0.452155913296E+03    0.75424E-02   -0.16480E-02  4896   0.394E-01    0.592E-01
DAV:   6    -0.452157506601E+03   -0.15933E-02   -0.11968E-02  4818   0.359E-01    0.748E-01
DAV:   7    -0.452157614541E+03   -0.10794E-03   -0.13572E-02  4878   0.392E-01    0.776E-01
DAV:   8    -0.452155226566E+03    0.23880E-02   -0.10353E-02  4836   0.298E-01    0.524E-01
DAV:   9    -0.452153888346E+03    0.13382E-02   -0.46162E-03  4788   0.208E-01    0.299E-01
DAV:  10    -0.452153315065E+03    0.57328E-03   -0.14127E-03  4200   0.133E-01    0.158E-01
DAV:  11    -0.452153232256E+03    0.82809E-04   -0.46917E-04  2730   0.710E-02
  80 F= -.48914595E+03 E0= -.48860577E+03  d E =-.156465E-01  mag=     0.0253
       N       E                     dE             d eps       ncg     rms          rms(c)
DAV:   1    -0.452105262653E+03    0.48052E-01   -0.31260E+01  4272   0.665E+00    0.689E-01
DAV:   2    -0.452187607218E+03   -0.82345E-01   -0.59008E-01  4338   0.113E+00    0.199E+00
DAV:   3    -0.452198156878E+03   -0.10550E-01   -0.89941E-02  4680   0.130E+00    0.224E+00
DAV:   4    -0.452165011559E+03    0.33145E-01   -0.32949E-02  4632   0.822E-01    0.966E-01
DAV:   5    -0.452159729288E+03    0.52823E-02   -0.11615E-02  4668   0.347E-01    0.523E-01
DAV:   6    -0.452162040589E+03   -0.23113E-02   -0.11045E-02  4788   0.330E-01    0.801E-01
DAV:   7    -0.452160540126E+03    0.15005E-02   -0.12947E-02  4758   0.358E-01    0.633E-01
DAV:   8    -0.452158955689E+03    0.15844E-02   -0.82687E-03  4722   0.285E-01    0.445E-01
DAV:   9    -0.452158137125E+03    0.81856E-03   -0.39032E-03  4710   0.192E-01    0.299E-01
DAV:  10    -0.452157744697E+03    0.39243E-03   -0.16639E-03  4278   0.125E-01    0.192E-01
DAV:  11    -0.452157553159E+03    0.19154E-03   -0.63938E-04  2754   0.793E-02    0.111E-01
DAV:  12    -0.452157464606E+03    0.88553E-04   -0.19778E-04  2412   0.467E-02
  81 F= -.48915549E+03 E0= -.48861472E+03  d E =-.953144E-02  mag=     0.0303
       N       E                     dE             d eps       ncg     rms          rms(c)
DAV:   1    -0.452114598659E+03    0.42954E-01   -0.25045E+01  4272   0.573E+00    0.646E-01
DAV:   2    -0.452162964935E+03   -0.48366E-01   -0.48219E-01  4290   0.822E-01    0.792E-01
DAV:   3    -0.452215874341E+03   -0.52909E-01   -0.47362E-02  4806   0.102E+00    0.272E+00
DAV:   4    -0.452166543279E+03    0.49331E-01   -0.54350E-02  4782   0.104E+00    0.101E+00
DAV:   5    -0.452161153645E+03    0.53896E-02   -0.14631E-02  4824   0.424E-01    0.707E-01
DAV:   6    -0.452161206517E+03   -0.52873E-04   -0.12715E-02  4866   0.343E-01    0.683E-01
DAV:   7    -0.452160471243E+03    0.73527E-03   -0.10533E-02  4860   0.342E-01    0.604E-01
DAV:   8    -0.452159525359E+03    0.94588E-03   -0.77673E-03  4830   0.278E-01    0.510E-01
DAV:   9    -0.452158081972E+03    0.14434E-02   -0.37028E-03  4734   0.196E-01    0.242E-01
DAV:  10    -0.452157736844E+03    0.34513E-03   -0.11115E-03  4134   0.111E-01    0.122E-01
DAV:  11    -0.452157673771E+03    0.63074E-04   -0.35646E-04  2592   0.656E-02
  82 F= -.48915925E+03 E0= -.48861847E+03  d E =-.376203E-02  mag=     0.0360
       N       E                     dE             d eps       ncg     rms          rms(c)
DAV:   1    -0.452045062266E+03    0.11267E+00   -0.59238E+01  4272   0.888E+00    0.101E+00
DAV:   2    -0.452183664031E+03   -0.13860E+00   -0.12095E+00  4296   0.141E+00    0.200E+00
DAV:   3    -0.452294490896E+03   -0.11083E+00   -0.17225E-01  4842   0.186E+00    0.423E+00
DAV:   4    -0.452171454345E+03    0.12304E+00   -0.12419E-01  4782   0.153E+00    0.155E+00
DAV:   5    -0.452160210139E+03    0.11244E-01   -0.41556E-02  4794   0.639E-01    0.110E+00
DAV:   6    -0.452159280200E+03    0.92994E-03   -0.24070E-02  4794   0.506E-01    0.969E-01
DAV:   7    -0.452159049268E+03    0.23093E-03   -0.25038E-02  4776   0.512E-01    0.102E+00
DAV:   8    -0.452154654581E+03    0.43947E-02   -0.19909E-02  4764   0.438E-01    0.635E-01
DAV:   9    -0.452153137309E+03    0.15173E-02   -0.10021E-02  4788   0.304E-01    0.458E-01
DAV:  10    -0.452152388932E+03    0.74838E-03   -0.49701E-03  4716   0.211E-01    0.319E-01
DAV:  11    -0.452151877700E+03    0.51123E-03   -0.17821E-03  4332   0.137E-01    0.171E-01
DAV:  12    -0.452151640748E+03    0.23695E-03   -0.43148E-04  2646   0.787E-02    0.720E-02
DAV:  13    -0.452151607612E+03    0.33136E-04   -0.14863E-04  2412   0.427E-02
  83 F= -.48915825E+03 E0= -.48861746E+03  d E =0.997190E-03  mag=     0.0440
       N       E                     dE             d eps       ncg     rms          rms(c)
DAV:   1    -0.452143199549E+03    0.84412E-02   -0.96697E+00  4272   0.375E+00    0.413E-01
DAV:   2    -0.452164551243E+03   -0.21352E-01   -0.17555E-01  4296   0.645E-01    0.101E+00
DAV:   3    -0.452168209742E+03   -0.36585E-02   -0.25367E-02  4752   0.606E-01    0.116E+00
DAV:   4    -0.452170061642E+03   -0.18519E-02   -0.17350E-02  4692   0.643E-01    0.126E+00
DAV:   5    -0.452158915876E+03    0.11146E-01   -0.10013E-02  4704   0.429E-01    0.327E-01
DAV:   6    -0.452158850161E+03    0.65715E-04   -0.32220E-03  4686   0.190E-01    0.377E-01
DAV:   7    -0.452159180392E+03   -0.33023E-03   -0.48448E-03  4716   0.214E-01    0.463E-01
DAV:   8    -0.452158321669E+03    0.85872E-03   -0.40685E-03  4734   0.193E-01    0.289E-01
DAV:   9    -0.452157806668E+03    0.51500E-03   -0.15611E-03  4344   0.129E-01    0.160E-01
DAV:  10    -0.452157634575E+03    0.17209E-03   -0.47597E-04  2622   0.685E-02    0.803E-02
DAV:  11    -0.452157600827E+03    0.33748E-04   -0.17002E-04  2388   0.418E-02
  84 F= -.48916121E+03 E0= -.48862041E+03  d E =-.295924E-02  mag=     0.0523
       N       E                     dE             d eps       ncg     rms          rms(c)
DAV:   1    -0.452157615498E+03    0.19077E-04   -0.82247E-01  4290   0.111E+00    0.122E-01
DAV:   2    -0.452160731818E+03   -0.31163E-02   -0.14430E-02  4416   0.251E-01    0.565E-01
DAV:   3    -0.452160049957E+03    0.68186E-03   -0.44230E-03  4644   0.284E-01    0.435E-01
DAV:   4    -0.452158855695E+03    0.11943E-02   -0.13348E-03  3924   0.166E-01    0.216E-01
DAV:   5    -0.452158608554E+03    0.24714E-03   -0.66059E-04  2646   0.873E-02    0.125E-01
DAV:   6    -0.452158524749E+03    0.83805E-04   -0.20907E-04  2364   0.479E-02
  85 F= -.48916192E+03 E0= -.48862140E+03  d E =-.712730E-03  mag=     0.0562
