  36  36   0   0
  0.4587335E+02  0.8642259E-09  0.8642259E-09  0.2211100E-08  0.0000000E+00
  1.000000000000000E-004
  CAR 
 CatImpurities                           
      7.29487503     -7.77006183  301      0.52529644      1.00000000
     -7.770  0.0000E+00  0.0000E+00  0.0000E+00  0.0000E+00
     -7.720  0.0000E+00  0.0000E+00  0.0000E+00  0.0000E+00
     -7.670  0.0000E+00  0.0000E+00  0.0000E+00  0.0000E+00
     -7.619  0.0000E+00  0.0000E+00  0.0000E+00  0.0000E+00
     -7.569  0.0000E+00  0.0000E+00  0.0000E+00  0.0000E+00
     -7.519  0.0000E+00  0.0000E+00  0.0000E+00  0.0000E+00
     -7.469  0.0000E+00  0.0000E+00  0.0000E+00  0.0000E+00
     -7.419  0.0000E+00  0.0000E+00  0.0000E+00  0.0000E+00
     -7.368  0.0000E+00  0.0000E+00  0.0000E+00  0.0000E+00
     -7.318  0.2014E-16  0.2014E-16  0.1012E-17  0.1012E-17
     -7.268  0.4220E-14  0.4220E-14  0.2129E-15  0.2129E-15
     -7.218  0.5372E-12  0.5372E-12  0.2719E-13  0.2719E-13
     -7.167  0.4168E-10  0.4168E-10  0.2120E-11  0.2120E-11
     -7.117  0.1974E-08  0.1974E-08  0.1012E-09  0.1012E-09
     -7.067  0.5711E-07  0.5711E-07  0.2969E-08  0.2969E-08
     -7.017  0.1012E-05  0.1012E-05  0.5379E-07  0.5379E-07
     -6.967  0.1101E-04  0.1101E-04  0.6066E-06  0.6066E-06
     -6.916  0.7384E-04  0.7384E-04  0.4314E-05  0.4314E-05
     -6.866  0.3087E-03  0.3087E-03  0.1982E-04  0.1982E-04
     -6.816  0.8283E-03  0.8283E-03  0.6141E-04  0.6141E-04
     -6.766  0.1535E-02  0.1535E-02  0.1385E-03  0.1385E-03
     -6.716  0.2241E-02  0.2241E-02  0.2510E-03  0.2510E-03
     -6.665  0.2849E-02  0.2849E-02  0.3941E-03  0.3941E-03
     -6.615  0.3073E-02  0.3073E-02  0.5484E-03  0.5484E-03
     -6.565  0.2828E-02  0.2828E-02  0.6904E-03  0.6904E-03
     -6.515  0.2661E-02  0.2661E-02  0.8240E-03  0.8240E-03
     -6.464  0.2948E-02  0.2948E-02  0.9721E-03  0.9721E-03
     -6.414  0.3400E-02  0.3400E-02  0.1143E-02  0.1143E-02
     -6.364  0.3598E-02  0.3598E-02  0.1323E-02  0.1323E-02
     -6.314  0.3497E-02  0.3497E-02  0.1499E-02  0.1499E-02
     -6.264  0.3091E-02  0.3091E-02  0.1654E-02  0.1654E-02
     -6.213  0.2646E-02  0.2646E-02  0.1787E-02  0.1787E-02
     -6.163  0.2956E-02  0.2956E-02  0.1936E-02  0.1936E-02
     -6.113  0.4009E-02  0.4009E-02  0.2137E-02  0.2137E-02
     -6.063  0.4750E-02  0.4750E-02  0.2375E-02  0.2375E-02
     -6.012  0.4546E-02  0.4546E-02  0.2604E-02  0.2604E-02
     -5.962  0.3729E-02  0.3729E-02  0.2791E-02  0.2791E-02
     -5.912  0.3503E-02  0.3503E-02  0.2967E-02  0.2967E-02
     -5.862  0.5220E-02  0.5220E-02  0.3229E-02  0.3229E-02
     -5.812  0.9032E-02  0.9032E-02  0.3683E-02  0.3683E-02
     -5.761  0.1483E-01  0.1483E-01  0.4427E-02  0.4427E-02
     -5.711  0.2418E-01  0.2418E-01  0.5642E-02  0.5642E-02
     -5.661  0.3838E-01  0.3838E-01  0.7569E-02  0.7569E-02
     -5.611  0.5513E-01  0.5513E-01  0.1034E-01  0.1034E-01
     -5.561  0.6946E-01  0.6946E-01  0.1383E-01  0.1383E-01
     -5.510  0.7766E-01  0.7766E-01  0.1773E-01  0.1773E-01
     -5.460  0.8103E-01  0.8103E-01  0.2179E-01  0.2179E-01
     -5.410  0.8400E-01  0.8400E-01  0.2601E-01  0.2601E-01
     -5.360  0.8680E-01  0.8680E-01  0.3037E-01  0.3037E-01
     -5.309  0.8674E-01  0.8674E-01  0.3473E-01  0.3473E-01
     -5.259  0.8553E-01  0.8553E-01  0.3902E-01  0.3902E-01
     -5.209  0.8688E-01  0.8688E-01  0.4338E-01  0.4338E-01
     -5.159  0.8900E-01  0.8900E-01  0.4785E-01  0.4785E-01
     -5.109  0.8811E-01  0.8811E-01  0.5228E-01  0.5228E-01
     -5.058  0.8649E-01  0.8649E-01  0.5662E-01  0.5662E-01
     -5.008  0.8955E-01  0.8955E-01  0.6112E-01  0.6112E-01
     -4.958  0.9711E-01  0.9711E-01  0.6600E-01  0.6600E-01
     -4.908  0.1030E+00  0.1030E+00  0.7117E-01  0.7117E-01
     -4.858  0.1032E+00  0.1032E+00  0.7635E-01  0.7635E-01
     -4.807  0.1026E+00  0.1026E+00  0.8150E-01  0.8150E-01
     -4.757  0.1073E+00  0.1073E+00  0.8689E-01  0.8689E-01
     -4.707  0.1114E+00  0.1114E+00  0.9248E-01  0.9248E-01
     -4.657  0.1066E+00  0.1066E+00  0.9783E-01  0.9783E-01
     -4.606  0.9546E-01  0.9546E-01  0.1026E+00  0.1026E+00
     -4.556  0.8539E-01  0.8539E-01  0.1069E+00  0.1069E+00
     -4.506  0.8123E-01  0.8123E-01  0.1110E+00  0.1110E+00
     -4.456  0.8426E-01  0.8426E-01  0.1152E+00  0.1152E+00
     -4.406  0.8978E-01  0.8978E-01  0.1197E+00  0.1197E+00
     -4.355  0.9261E-01  0.9261E-01  0.1244E+00  0.1244E+00
     -4.305  0.9438E-01  0.9438E-01  0.1291E+00  0.1291E+00
     -4.255  0.9805E-01  0.9805E-01  0.1340E+00  0.1340E+00
     -4.205  0.1037E+00  0.1037E+00  0.1393E+00  0.1393E+00
     -4.154  0.1124E+00  0.1124E+00  0.1449E+00  0.1449E+00
     -4.104  0.1237E+00  0.1237E+00  0.1511E+00  0.1511E+00
     -4.054  0.1300E+00  0.1300E+00  0.1576E+00  0.1576E+00
     -4.004  0.1268E+00  0.1268E+00  0.1640E+00  0.1640E+00
     -3.954  0.1208E+00  0.1208E+00  0.1701E+00  0.1701E+00
     -3.903  0.1189E+00  0.1189E+00  0.1760E+00  0.1760E+00
     -3.853  0.1203E+00  0.1203E+00  0.1821E+00  0.1821E+00
     -3.803  0.1218E+00  0.1218E+00  0.1882E+00  0.1882E+00
     -3.753  0.1196E+00  0.1196E+00  0.1942E+00  0.1942E+00
     -3.703  0.1125E+00  0.1125E+00  0.1999E+00  0.1999E+00
     -3.652  0.1067E+00  0.1067E+00  0.2052E+00  0.2052E+00
     -3.602  0.1095E+00  0.1095E+00  0.2107E+00  0.2107E+00
     -3.552  0.1193E+00  0.1193E+00  0.2167E+00  0.2167E+00
     -3.502  0.1276E+00  0.1276E+00  0.2231E+00  0.2231E+00
     -3.451  0.1299E+00  0.1299E+00  0.2296E+00  0.2296E+00
     -3.401  0.1274E+00  0.1274E+00  0.2360E+00  0.2360E+00
     -3.351  0.1214E+00  0.1214E+00  0.2421E+00  0.2421E+00
     -3.301  0.1126E+00  0.1126E+00  0.2478E+00  0.2478E+00
     -3.251  0.1064E+00  0.1064E+00  0.2531E+00  0.2531E+00
     -3.200  0.1113E+00  0.1113E+00  0.2587E+00  0.2587E+00
     -3.150  0.1251E+00  0.1251E+00  0.2650E+00  0.2650E+00
     -3.100  0.1353E+00  0.1353E+00  0.2718E+00  0.2718E+00
     -3.050  0.1344E+00  0.1344E+00  0.2785E+00  0.2785E+00
     -2.999  0.1264E+00  0.1264E+00  0.2849E+00  0.2849E+00
     -2.949  0.1207E+00  0.1207E+00  0.2909E+00  0.2909E+00
     -2.899  0.1246E+00  0.1246E+00  0.2972E+00  0.2972E+00
     -2.849  0.1367E+00  0.1367E+00  0.3041E+00  0.3041E+00
     -2.799  0.1502E+00  0.1502E+00  0.3116E+00  0.3116E+00
     -2.748  0.1592E+00  0.1592E+00  0.3196E+00  0.3196E+00
     -2.698  0.1586E+00  0.1586E+00  0.3276E+00  0.3276E+00
     -2.648  0.1500E+00  0.1500E+00  0.3351E+00  0.3351E+00
     -2.598  0.1417E+00  0.1417E+00  0.3422E+00  0.3422E+00
     -2.548  0.1362E+00  0.1362E+00  0.3490E+00  0.3490E+00
     -2.497  0.1271E+00  0.1271E+00  0.3554E+00  0.3554E+00
     -2.447  0.1076E+00  0.1076E+00  0.3608E+00  0.3608E+00
     -2.397  0.7858E-01  0.7858E-01  0.3648E+00  0.3648E+00
     -2.347  0.5062E-01  0.5062E-01  0.3673E+00  0.3673E+00
     -2.296  0.3269E-01  0.3269E-01  0.3690E+00  0.3690E+00
     -2.246  0.2363E-01  0.2363E-01  0.3702E+00  0.3702E+00
     -2.196  0.1877E-01  0.1877E-01  0.3711E+00  0.3711E+00
     -2.146  0.1603E-01  0.1603E-01  0.3719E+00  0.3719E+00
     -2.096  0.1478E-01  0.1478E-01  0.3726E+00  0.3726E+00
     -2.045  0.1444E-01  0.1444E-01  0.3734E+00  0.3734E+00
     -1.995  0.1393E-01  0.1393E-01  0.3741E+00  0.3741E+00
     -1.945  0.1183E-01  0.1183E-01  0.3747E+00  0.3747E+00
     -1.895  0.8386E-02  0.8386E-02  0.3751E+00  0.3751E+00
     -1.845  0.5492E-02  0.5492E-02  0.3754E+00  0.3754E+00
     -1.794  0.4395E-02  0.4395E-02  0.3756E+00  0.3756E+00
     -1.744  0.5532E-02  0.5532E-02  0.3759E+00  0.3759E+00
     -1.694  0.8334E-02  0.8334E-02  0.3763E+00  0.3763E+00
     -1.644  0.1066E-01  0.1066E-01  0.3768E+00  0.3768E+00
     -1.593  0.1074E-01  0.1074E-01  0.3773E+00  0.3773E+00
     -1.543  0.8960E-02  0.8960E-02  0.3778E+00  0.3778E+00
     -1.493  0.7196E-02  0.7196E-02  0.3782E+00  0.3782E+00
     -1.443  0.7539E-02  0.7539E-02  0.3785E+00  0.3785E+00
     -1.393  0.9912E-02  0.9912E-02  0.3790E+00  0.3790E+00
     -1.342  0.1136E-01  0.1136E-01  0.3796E+00  0.3796E+00
     -1.292  0.1009E-01  0.1009E-01  0.3801E+00  0.3801E+00
     -1.242  0.8112E-02  0.8112E-02  0.3805E+00  0.3805E+00
     -1.192  0.7744E-02  0.7744E-02  0.3809E+00  0.3809E+00
     -1.141  0.8469E-02  0.8469E-02  0.3813E+00  0.3813E+00
     -1.091  0.8587E-02  0.8587E-02  0.3818E+00  0.3818E+00
     -1.041  0.8061E-02  0.8061E-02  0.3822E+00  0.3822E+00
     -0.991  0.7790E-02  0.7790E-02  0.3826E+00  0.3826E+00
     -0.941  0.7718E-02  0.7718E-02  0.3829E+00  0.3829E+00
     -0.890  0.7677E-02  0.7677E-02  0.3833E+00  0.3833E+00
     -0.840  0.8009E-02  0.8009E-02  0.3837E+00  0.3837E+00
     -0.790  0.8426E-02  0.8426E-02  0.3842E+00  0.3842E+00
     -0.740  0.8750E-02  0.8750E-02  0.3846E+00  0.3846E+00
     -0.690  0.9180E-02  0.9180E-02  0.3851E+00  0.3851E+00
     -0.639  0.9076E-02  0.9076E-02  0.3855E+00  0.3855E+00
     -0.589  0.8689E-02  0.8689E-02  0.3860E+00  0.3860E+00
     -0.539  0.9328E-02  0.9328E-02  0.3864E+00  0.3864E+00
     -0.489  0.1028E-01  0.1028E-01  0.3869E+00  0.3869E+00
     -0.438  0.9761E-02  0.9761E-02  0.3874E+00  0.3874E+00
     -0.388  0.7845E-02  0.7845E-02  0.3878E+00  0.3878E+00
     -0.338  0.6416E-02  0.6416E-02  0.3881E+00  0.3881E+00
     -0.288  0.6877E-02  0.6877E-02  0.3885E+00  0.3885E+00
     -0.238  0.8623E-02  0.8623E-02  0.3889E+00  0.3889E+00
     -0.187  0.1009E-01  0.1009E-01  0.3894E+00  0.3894E+00
     -0.137  0.1035E-01  0.1035E-01  0.3899E+00  0.3899E+00
     -0.087  0.9930E-02  0.9930E-02  0.3904E+00  0.3904E+00
     -0.037  0.1013E-01  0.1013E-01  0.3910E+00  0.3910E+00
      0.013  0.1083E-01  0.1083E-01  0.3915E+00  0.3915E+00
      0.064  0.1037E-01  0.1037E-01  0.3920E+00  0.3920E+00
      0.114  0.8360E-02  0.8360E-02  0.3924E+00  0.3924E+00
      0.164  0.6648E-02  0.6648E-02  0.3928E+00  0.3928E+00
      0.214  0.6760E-02  0.6760E-02  0.3931E+00  0.3931E+00
      0.265  0.8542E-02  0.8542E-02  0.3935E+00  0.3935E+00
      0.315  0.1085E-01  0.1085E-01  0.3941E+00  0.3941E+00
      0.365  0.1184E-01  0.1184E-01  0.3947E+00  0.3947E+00
      0.415  0.1041E-01  0.1041E-01  0.3952E+00  0.3952E+00
      0.465  0.7898E-02  0.7898E-02  0.3956E+00  0.3956E+00
      0.516  0.6629E-02  0.6629E-02  0.3959E+00  0.3959E+00
      0.566  0.8016E-02  0.8016E-02  0.3963E+00  0.3963E+00
      0.616  0.1129E-01  0.1129E-01  0.3969E+00  0.3969E+00
      0.666  0.1341E-01  0.1341E-01  0.3976E+00  0.3976E+00
      0.717  0.1329E-01  0.1329E-01  0.3982E+00  0.3982E+00
      0.767  0.1285E-01  0.1285E-01  0.3989E+00  0.3989E+00
      0.817  0.1271E-01  0.1271E-01  0.3995E+00  0.3995E+00
      0.867  0.1276E-01  0.1276E-01  0.4002E+00  0.4002E+00
      0.917  0.1393E-01  0.1393E-01  0.4009E+00  0.4009E+00
      0.968  0.1489E-01  0.1489E-01  0.4016E+00  0.4016E+00
      1.018  0.1299E-01  0.1299E-01  0.4023E+00  0.4023E+00
      1.068  0.9495E-02  0.9495E-02  0.4027E+00  0.4027E+00
      1.118  0.8028E-02  0.8028E-02  0.4031E+00  0.4031E+00
      1.168  0.9738E-02  0.9738E-02  0.4036E+00  0.4036E+00
      1.219  0.1293E-01  0.1293E-01  0.4043E+00  0.4043E+00
      1.269  0.1495E-01  0.1495E-01  0.4050E+00  0.4050E+00
      1.319  0.1423E-01  0.1423E-01  0.4058E+00  0.4058E+00
      1.369  0.1190E-01  0.1190E-01  0.4063E+00  0.4063E+00
      1.420  0.1018E-01  0.1018E-01  0.4069E+00  0.4069E+00
      1.470  0.9636E-02  0.9636E-02  0.4073E+00  0.4073E+00
      1.520  0.9606E-02  0.9606E-02  0.4078E+00  0.4078E+00
      1.570  0.9686E-02  0.9686E-02  0.4083E+00  0.4083E+00
      1.620  0.9771E-02  0.9771E-02  0.4088E+00  0.4088E+00
      1.671  0.9838E-02  0.9838E-02  0.4093E+00  0.4093E+00
      1.721  0.9913E-02  0.9913E-02  0.4098E+00  0.4098E+00
      1.771  0.9897E-02  0.9897E-02  0.4103E+00  0.4103E+00
      1.821  0.9680E-02  0.9680E-02  0.4108E+00  0.4108E+00
      1.871  0.9825E-02  0.9825E-02  0.4113E+00  0.4113E+00
      1.922  0.1095E-01  0.1095E-01  0.4118E+00  0.4118E+00
      1.972  0.1199E-01  0.1199E-01  0.4124E+00  0.4124E+00
      2.022  0.1185E-01  0.1185E-01  0.4130E+00  0.4130E+00
      2.072  0.1177E-01  0.1177E-01  0.4136E+00  0.4136E+00
      2.123  0.1287E-01  0.1287E-01  0.4143E+00  0.4143E+00
      2.173  0.1423E-01  0.1423E-01  0.4150E+00  0.4150E+00
      2.223  0.1462E-01  0.1462E-01  0.4157E+00  0.4157E+00
      2.273  0.1388E-01  0.1388E-01  0.4164E+00  0.4164E+00
      2.323  0.1236E-01  0.1236E-01  0.4170E+00  0.4170E+00
      2.374  0.1018E-01  0.1018E-01  0.4175E+00  0.4175E+00
      2.424  0.8072E-02  0.8072E-02  0.4179E+00  0.4179E+00
      2.474  0.7793E-02  0.7793E-02  0.4183E+00  0.4183E+00
      2.524  0.9565E-02  0.9565E-02  0.4188E+00  0.4188E+00
      2.575  0.1141E-01  0.1141E-01  0.4194E+00  0.4194E+00
      2.625  0.1237E-01  0.1237E-01  0.4200E+00  0.4200E+00
      2.675  0.1362E-01  0.1362E-01  0.4207E+00  0.4207E+00
      2.725  0.1537E-01  0.1537E-01  0.4215E+00  0.4215E+00
      2.775  0.1506E-01  0.1506E-01  0.4222E+00  0.4222E+00
      2.826  0.1144E-01  0.1144E-01  0.4228E+00  0.4228E+00
      2.876  0.7764E-02  0.7764E-02  0.4232E+00  0.4232E+00
      2.926  0.7456E-02  0.7456E-02  0.4236E+00  0.4236E+00
      2.976  0.9617E-02  0.9617E-02  0.4240E+00  0.4240E+00
      3.026  0.1134E-01  0.1134E-01  0.4246E+00  0.4246E+00
      3.077  0.1192E-01  0.1192E-01  0.4252E+00  0.4252E+00
      3.127  0.1253E-01  0.1253E-01  0.4258E+00  0.4258E+00
      3.177  0.1357E-01  0.1357E-01  0.4265E+00  0.4265E+00
      3.227  0.1444E-01  0.1444E-01  0.4272E+00  0.4272E+00
      3.278  0.1423E-01  0.1423E-01  0.4280E+00  0.4280E+00
      3.328  0.1221E-01  0.1221E-01  0.4286E+00  0.4286E+00
      3.378  0.9333E-02  0.9333E-02  0.4290E+00  0.4290E+00
      3.428  0.7676E-02  0.7676E-02  0.4294E+00  0.4294E+00
      3.478  0.7780E-02  0.7780E-02  0.4298E+00  0.4298E+00
      3.529  0.8975E-02  0.8975E-02  0.4303E+00  0.4303E+00
      3.579  0.1164E-01  0.1164E-01  0.4308E+00  0.4308E+00
      3.629  0.1633E-01  0.1633E-01  0.4317E+00  0.4317E+00
      3.679  0.2176E-01  0.2176E-01  0.4328E+00  0.4328E+00
      3.730  0.2520E-01  0.2520E-01  0.4340E+00  0.4340E+00
      3.780  0.2477E-01  0.2477E-01  0.4353E+00  0.4353E+00
      3.830  0.2158E-01  0.2158E-01  0.4364E+00  0.4364E+00
      3.880  0.1838E-01  0.1838E-01  0.4373E+00  0.4373E+00
      3.930  0.1591E-01  0.1591E-01  0.4381E+00  0.4381E+00
      3.981  0.1373E-01  0.1373E-01  0.4388E+00  0.4388E+00
      4.031  0.1240E-01  0.1240E-01  0.4394E+00  0.4394E+00
      4.081  0.1187E-01  0.1187E-01  0.4400E+00  0.4400E+00
      4.131  0.1211E-01  0.1211E-01  0.4406E+00  0.4406E+00
      4.181  0.1338E-01  0.1338E-01  0.4413E+00  0.4413E+00
      4.232  0.1456E-01  0.1456E-01  0.4420E+00  0.4420E+00
      4.282  0.1409E-01  0.1409E-01  0.4427E+00  0.4427E+00
      4.332  0.1188E-01  0.1188E-01  0.4433E+00  0.4433E+00
      4.382  0.9856E-02  0.9856E-02  0.4438E+00  0.4438E+00
      4.433  0.1017E-01  0.1017E-01  0.4443E+00  0.4443E+00
      4.483  0.1306E-01  0.1306E-01  0.4450E+00  0.4450E+00
      4.533  0.1707E-01  0.1707E-01  0.4458E+00  0.4458E+00
      4.583  0.1938E-01  0.1938E-01  0.4468E+00  0.4468E+00
      4.633  0.1825E-01  0.1825E-01  0.4477E+00  0.4477E+00
      4.684  0.1550E-01  0.1550E-01  0.4485E+00  0.4485E+00
      4.734  0.1389E-01  0.1389E-01  0.4492E+00  0.4492E+00
      4.784  0.1442E-01  0.1442E-01  0.4499E+00  0.4499E+00
      4.834  0.1683E-01  0.1683E-01  0.4508E+00  0.4508E+00
      4.884  0.2011E-01  0.2011E-01  0.4518E+00  0.4518E+00
      4.935  0.2273E-01  0.2273E-01  0.4529E+00  0.4529E+00
      4.985  0.2327E-01  0.2327E-01  0.4541E+00  0.4541E+00
      5.035  0.2139E-01  0.2139E-01  0.4551E+00  0.4551E+00
      5.085  0.1778E-01  0.1778E-01  0.4560E+00  0.4560E+00
      5.136  0.1368E-01  0.1368E-01  0.4567E+00  0.4567E+00
      5.186  0.1066E-01  0.1066E-01  0.4573E+00  0.4573E+00
      5.236  0.1025E-01  0.1025E-01  0.4578E+00  0.4578E+00
      5.286  0.1273E-01  0.1273E-01  0.4584E+00  0.4584E+00
      5.336  0.1602E-01  0.1601E-01  0.4592E+00  0.4592E+00
      5.387  0.1762E-01  0.1762E-01  0.4601E+00  0.4601E+00
      5.437  0.1683E-01  0.1684E-01  0.4610E+00  0.4610E+00
      5.487  0.1422E-01  0.1422E-01  0.4617E+00  0.4617E+00
      5.537  0.1163E-01  0.1163E-01  0.4622E+00  0.4622E+00
      5.588  0.1165E-01  0.1165E-01  0.4628E+00  0.4628E+00
      5.638  0.1471E-01  0.1470E-01  0.4636E+00  0.4636E+00
      5.688  0.1854E-01  0.1854E-01  0.4645E+00  0.4645E+00
      5.738  0.2176E-01  0.2176E-01  0.4656E+00  0.4656E+00
      5.788  0.2488E-01  0.2487E-01  0.4668E+00  0.4668E+00
      5.839  0.2725E-01  0.2725E-01  0.4682E+00  0.4682E+00
      5.889  0.2671E-01  0.2671E-01  0.4696E+00  0.4696E+00
      5.939  0.2252E-01  0.2252E-01  0.4707E+00  0.4707E+00
      5.989  0.1684E-01  0.1684E-01  0.4715E+00  0.4715E+00
      6.039  0.1239E-01  0.1239E-01  0.4722E+00  0.4722E+00
      6.090  0.9717E-02  0.9720E-02  0.4726E+00  0.4726E+00
      6.140  0.7787E-02  0.7809E-02  0.4730E+00  0.4730E+00
      6.190  0.6035E-02  0.6106E-02  0.4733E+00  0.4733E+00
      6.240  0.4832E-02  0.4945E-02  0.4736E+00  0.4736E+00
      6.291  0.3926E-02  0.3988E-02  0.4738E+00  0.4738E+00
      6.341  0.2654E-02  0.2595E-02  0.4739E+00  0.4739E+00
      6.391  0.1285E-02  0.1174E-02  0.4740E+00  0.4740E+00
      6.441  0.4198E-03  0.3497E-03  0.4740E+00  0.4740E+00
      6.491  0.9005E-04  0.6721E-04  0.4740E+00  0.4740E+00
      6.542  0.1244E-04  0.8237E-05  0.4740E+00  0.4740E+00
      6.592  0.1089E-05  0.6375E-06  0.4740E+00  0.4740E+00
      6.642  0.5963E-07  0.3088E-07  0.4740E+00  0.4740E+00
      6.692  0.2024E-08  0.9286E-09  0.4740E+00  0.4740E+00
      6.742  0.4229E-10  0.1724E-10  0.4740E+00  0.4740E+00
      6.793  0.5417E-12  0.1966E-12  0.4740E+00  0.4740E+00
      6.843  0.4240E-14  0.1372E-14  0.4740E+00  0.4740E+00
      6.893  0.2014E-16  0.5896E-17  0.4740E+00  0.4740E+00
      6.943  0.0000E+00  0.0000E+00  0.4740E+00  0.4740E+00
      6.994  0.0000E+00  0.0000E+00  0.4740E+00  0.4740E+00
      7.044  0.0000E+00  0.0000E+00  0.4740E+00  0.4740E+00
      7.094  0.0000E+00  0.0000E+00  0.4740E+00  0.4740E+00
      7.144  0.0000E+00  0.0000E+00  0.4740E+00  0.4740E+00
      7.194  0.0000E+00  0.0000E+00  0.4740E+00  0.4740E+00
      7.245  0.0000E+00  0.0000E+00  0.4740E+00  0.4740E+00
      7.295  0.0000E+00  0.0000E+00  0.4740E+00  0.4740E+00
