Automatically generated mesh
       6
Reciprocal lattice
    0.08333333333333    0.08333333333333    0.00000000000000             4
    0.25000000000000    0.08333333333333    0.00000000000000             8
    0.41666666666667    0.08333333333333    0.00000000000000             8
    0.25000000000000    0.25000000000000    0.00000000000000             4
    0.41666666666667    0.25000000000000    0.00000000000000             8
    0.41666666666667    0.41666666666667    0.00000000000000             4
