       N       E                     dE             d eps       ncg     rms          rms(c)
DAV:   1     0.225304232797E+04    0.22530E+04   -0.15905E+05  5696   0.117E+03
DAV:   2     0.481639581951E+01   -0.22482E+04   -0.21163E+04  6242   0.281E+02
DAV:   3    -0.959431246758E+02   -0.10076E+03   -0.98013E+02  6203   0.555E+01
DAV:   4    -0.977097612778E+02   -0.17666E+01   -0.17610E+01  6352   0.746E+00
DAV:   5    -0.977483991875E+02   -0.38638E-01   -0.38608E-01  6440   0.108E+00    0.276E+01
RMM:   6    -0.904014720889E+02    0.73469E+01   -0.26645E+01  5708   0.122E+01    0.178E+01
RMM:   7    -0.900739951231E+02    0.32748E+00   -0.10638E+00  5688   0.198E+00    0.891E+00
RMM:   8    -0.903058910394E+02   -0.23190E+00   -0.35897E-01  5710   0.879E-01    0.148E+00
RMM:   9    -0.899871742470E+02    0.31872E+00   -0.20596E-01  5700   0.614E-01    0.352E-01
RMM:  10    -0.899849832759E+02    0.21910E-02   -0.84931E-03  5710   0.166E-01    0.162E-01
RMM:  11    -0.899826800021E+02    0.23033E-02   -0.86860E-04  5545   0.467E-02    0.896E-02
RMM:  12    -0.899831492179E+02   -0.46922E-03   -0.26442E-03  5676   0.720E-02    0.804E-02
RMM:  13    -0.899826496568E+02    0.49956E-03   -0.16120E-04  3402   0.208E-02    0.535E-02
RMM:  14    -0.899831074389E+02   -0.45778E-03   -0.20247E-03  5628   0.587E-02    0.624E-02
RMM:  15    -0.899827925187E+02    0.31492E-03   -0.58442E-05  3248   0.115E-02    0.398E-02
RMM:  16    -0.899827592868E+02    0.33232E-04   -0.52916E-04  4466   0.310E-02
   1 F= -.10252587E+03 E0= -.10250518E+03  d E =-.102526E+03  mag=     0.0000
       N       E                     dE             d eps       ncg     rms          rms(c)
DAV:   1    -0.899860440462E+02   -0.32515E-02   -0.17165E-01  5802   0.770E-01    0.273E-02
RMM:   2    -0.899861803343E+02   -0.13629E-03   -0.10993E-03  5394   0.950E-02    0.138E-02
RMM:   3    -0.899862054393E+02   -0.25105E-04   -0.30402E-05  3031   0.157E-02
   2 F= -.10252713E+03 E0= -.10250652E+03  d E =-.125470E-02  mag=     0.0000
       N       E                     dE             d eps       ncg     rms          rms(c)
DAV:   1    -0.900013114411E+02   -0.15131E-01   -0.56296E+00  5764   0.439E+00    0.124E-01
RMM:   2    -0.900044854049E+02   -0.31740E-02   -0.32232E-02  5694   0.517E-01    0.921E-02
RMM:   3    -0.900044965983E+02   -0.11193E-04   -0.10559E-03  5432   0.834E-02    0.667E-02
RMM:   4    -0.900044916868E+02    0.49115E-05   -0.13164E-04  3207   0.236E-02
   3 F= -.10253274E+03 E0= -.10251260E+03  d E =-.561217E-02  mag=     0.0000
       N       E                     dE             d eps       ncg     rms          rms(c)
DAV:   1    -0.900124411112E+02   -0.79445E-02   -0.12325E+02  5688   0.208E+01    0.514E-01
RMM:   2    -0.900790028945E+02   -0.66562E-01   -0.67099E-01  5700   0.240E+00    0.402E-01
RMM:   3    -0.900787069476E+02    0.29595E-03   -0.20302E-02  5750   0.358E-01    0.322E-01
RMM:   4    -0.900778639604E+02    0.84299E-03   -0.19767E-03  5676   0.923E-02    0.242E-01
RMM:   5    -0.900763189753E+02    0.15450E-02   -0.62740E-03  5702   0.151E-01    0.555E-02
RMM:   6    -0.900762254017E+02    0.93574E-04   -0.71591E-05  3109   0.201E-02
   4 F= -.10254301E+03 E0= -.10252463E+03  d E =-.102673E-01  mag=     0.0000
       N       E                     dE             d eps       ncg     rms          rms(c)
DAV:   1    -0.900740592471E+02    0.22597E-02   -0.27175E+01  5718   0.950E+00    0.326E-01
RMM:   2    -0.900902040198E+02   -0.16145E-01   -0.16361E-01  5697   0.113E+00    0.262E-01
RMM:   3    -0.900903558659E+02   -0.15185E-03   -0.59195E-03  5736   0.184E-01    0.174E-01
RMM:   4    -0.900901599993E+02    0.19587E-03   -0.10367E-03  5568   0.572E-02    0.127E-01
RMM:   5    -0.900897708332E+02    0.38917E-03   -0.73464E-04  5124   0.505E-02    0.212E-02
RMM:   6    -0.900897524128E+02    0.18420E-04   -0.31198E-05  3064   0.110E-02
   5 F= -.10254246E+03 E0= -.10252524E+03  d E =0.550852E-03  mag=     0.0000
       N       E                     dE             d eps       ncg     rms          rms(c)
DAV:   1    -0.900755721446E+02    0.14199E-01   -0.97052E+00  5688   0.558E+00    0.192E-01
RMM:   2    -0.900814501650E+02   -0.58780E-02   -0.59366E-02  5688   0.681E-01    0.145E-01
RMM:   3    -0.900815108339E+02   -0.60669E-04   -0.22104E-03  5650   0.114E-01    0.949E-02
RMM:   4    -0.900814447308E+02    0.66103E-04   -0.31992E-04  3666   0.329E-02
   6 F= -.10254507E+03 E0= -.10252714E+03  d E =-.261521E-02  mag=     0.0000
