 vasp.5.4.4.18Apr17-6-g9f103f2a35 (build Sep 18 2020 13:42:41) complex          
  
 executed on                Eagle date 2021.11.03  09:04:58
 running on   36 total cores
 distrk:  each k-point on   36 cores,    1 groups
 distr:  one band on NCORES_PER_BAND=  36 cores,    1 groups


--------------------------------------------------------------------------------------------------------


 INCAR:
 POTCAR:    PAW_PBE Ag 02Apr2005                  

 ----------------------------------------------------------------------------- 
|                                                                             |
|           W    W    AA    RRRRR   N    N  II  N    N   GGGG   !!!           |
|           W    W   A  A   R    R  NN   N  II  NN   N  G    G  !!!           |
|           W    W  A    A  R    R  N N  N  II  N N  N  G       !!!           |
|           W WW W  AAAAAA  RRRRR   N  N N  II  N  N N  G  GGG   !            |
|           WW  WW  A    A  R   R   N   NN  II  N   NN  G    G                |
|           W    W  A    A  R    R  N    N  II  N    N   GGGG   !!!           |
|                                                                             |
|      For optimal performance we recommend to set                            |
|        NCORE= 4 - approx SQRT( number of cores)                             |
|      NCORE specifies how many cores store one orbital (NPAR=cpu/NCORE).     |
|      This setting can  greatly improve the performance of VASP for DFT.     |
|      The default,   NCORE=1            might be grossly inefficient         |
|      on modern multi-core architectures or massively parallel machines.     |
|      Do your own testing !!!!                                               |
|      Unfortunately you need to use the default for GW and RPA calculations. |
|      (for HF NCORE is supported but not extensively tested yet)             |
|                                                                             |
 ----------------------------------------------------------------------------- 

 POTCAR:    PAW_PBE Ag 02Apr2005                  
   VRHFIN =Ag : s1 d10                                                          
   LEXCH  = PE                                                                  
   EATOM  =  1037.2675 eV,   76.2370 Ry                                         
                                                                                
   TITEL  = PAW_PBE Ag 02Apr2005                                                
   LULTRA =        F    use ultrasoft PP ?                                      
   IUNSCR =        1    unscreen: 0-lin 1-nonlin 2-no                           
   RPACOR =    2.000    partial core radius                                     
   POMASS =  107.868; ZVAL   =   11.000    mass and valenz                      
   RCORE  =    2.500    outmost cutoff radius                                   
   RWIGS  =    2.840; RWIGS  =    1.503    wigner-seitz radius (au A)           
   ENMAX  =  249.844; ENMIN  =  187.383 eV                                      
   ICORE  =        3    local potential                                         
   LCOR   =        T    correct aug charges                                     
   LPAW   =        T    paw PP                                                  
   EAUG   =  412.496                                                            
   DEXC   =    0.000                                                            
   RMAX   =    2.560    core radius for proj-oper                               
   RAUG   =    1.300    factor for augmentation sphere                          
   RDEP   =    2.576    radius for radial grids                                 
   RDEPT  =    2.072    core radius for aug-charge                              
                                                                                
   Atomic configuration                                                         
   12 entries                                                                   
     n  l   j            E        occ.                                          
     1  0  0.50    -25324.9161   2.0000                                         
     2  0  0.50     -3728.5341   2.0000                                         
     2  1  1.50     -3344.0404   6.0000                                         
     3  0  0.50      -683.5581   2.0000                                         
     3  1  1.50      -557.3225   6.0000                                         
     3  2  2.50      -358.3853  10.0000                                         
     4  0  0.50       -95.0341   2.0000                                         
     4  1  1.50       -58.5511   6.0000                                         
     4  2  2.50        -7.4440  10.0000                                         
     5  0  0.50        -4.4045   1.0000                                         
     5  1  0.50        -1.3606   0.0000                                         
     4  3  2.50        -1.3606   0.0000                                         
   Description                                                                  
     l       E           TYP  RCUT    TYP  RCUT                                 
     2     -7.4439781     23  2.400                                             
     2     -8.8045607     23  2.400                                             
     0     -4.4044681     23  2.400                                             
     0      1.9520038     23  2.400                                             
     1     -1.3605826     23  2.500                                             
     1     27.2116520     23  2.500                                             
     3     -4.0817478     23  2.400                                             
  local pseudopotential read in
  partial core-charges read in
  partial kinetic energy density read in
  atomic valenz-charges read in
  non local Contribution for L=           2  read in
    real space projection operators read in
  non local Contribution for L=           2  read in
    real space projection operators read in
  non local Contribution for L=           0  read in
    real space projection operators read in
  non local Contribution for L=           0  read in
    real space projection operators read in
  non local Contribution for L=           1  read in
    real space projection operators read in
  non local Contribution for L=           1  read in
    real space projection operators read in
    PAW grid and wavefunctions read in
 
   number of l-projection  operators is LMAX  =           6
   number of lm-projection operators is LMMAX =          18
 
 Optimization of the real space projectors (new method)

 maximal supplied QI-value         = 15.12
 optimisation between [QCUT,QGAM] = [ 10.13, 20.41] = [ 28.73,116.64] Ry 
 Optimized for a Real-space Cutoff    1.55 Angstroem

   l    n(q)    QCUT    max X(q) W(low)/X(q) W(high)/X(q)  e(spline) 
   2      9    10.129    53.897    0.12E-03    0.59E-04    0.12E-06
   2      9    10.129    52.416    0.12E-03    0.58E-04    0.12E-06
   0      9    10.129   122.045    0.47E-04    0.63E-05    0.83E-07
   0      9    10.129    73.629    0.43E-04    0.60E-05    0.80E-07
   1      9    10.129    15.255    0.12E-03    0.81E-05    0.12E-06
   1      9    10.129     9.562    0.10E-03    0.55E-05    0.10E-06
  PAW_PBE Ag 02Apr2005                  :
 energy of atom  1       EATOM=-1037.2675
 kinetic energy error for atom=    0.0091 (will be added to EATOM!!)
 
 
 POSCAR: Ag                                      
  positions in cartesian coordinates
  No initial velocities read in
 exchange correlation table for  LEXCH =        8
   RHO(1)=    0.500       N(1)  =     2000
   RHO(2)=  100.500       N(2)  =     4000

 VTST: version 3.2, (02/03/18)

 CHAIN: initializing optimizer
 
 OPT: Using LBFGS optimizer
 OPT: LBFGS, Init
 OPT: LBFGS, MEMORY             20
 OPT: LBFGS, IMAGES              1
 OPT: LBFGS, MAXMOVE      0.200000
 OPT: LBFGS, LGLOBAL      T
 OPT: LBFGS, INVCURV      0.010000
 OPT: LBFGS, LLINEOPT      F
 OPT: LBFGS, FDSTEP       0.005000
 OPT: LBFGS, LAUTOSCALE      T
 OPT: LBFGS, DAMPING      2.000000
 
 CHAIN: Read ICHAIN            0
 
 POSCAR: Ag                                      
  positions in cartesian coordinates
  No initial velocities read in
 


--------------------------------------------------------------------------------------------------------


 ion  position               nearest neighbor table
   1  0.000  0.000  0.276-   2 2.88   3 2.88   4 2.88   7 2.88  10 2.88  12 2.88  16 2.88  18 2.88

   2  0.333  0.000  0.276-   3 2.88   1 2.88   5 2.88   8 2.88  11 2.88  17 2.88  16 2.88  10 2.88

   3  0.667  0.000  0.276-   2 2.88   1 2.88   6 2.88   9 2.88  11 2.88  17 2.88  12 2.88  18 2.88

   4  0.000  0.333  0.276-   7 2.88   5 2.88   6 2.88   1 2.88  13 2.88  15 2.88  10 2.88  12 2.88

   5  0.333  0.333  0.276-   6 2.88   8 2.88   2 2.88   4 2.88  14 2.88  13 2.88  11 2.88  10 2.88

   6  0.667  0.333  0.276-   5 2.88   9 2.88   3 2.88   4 2.88  14 2.88  11 2.88  15 2.88  12 2.88

   7  0.000  0.667  0.276-   4 2.88   1 2.88   8 2.88   9 2.88  13 2.88  15 2.88  16 2.88  18 2.88

   8  0.333  0.667  0.276-   5 2.88   9 2.88   7 2.88   2 2.88  14 2.88  13 2.88  17 2.88  16 2.88

   9  0.667  0.667  0.276-   6 2.88   8 2.88   7 2.88   3 2.88  14 2.88  15 2.88  17 2.88  18 2.88

  10  0.167  0.167  0.184-  19 2.88  20 2.88  22 2.88  16 2.88  12 2.88  23 2.88  13 2.88  11 2.88
                             1 2.88   2 2.88   4 2.88   5 2.88
  11  0.500  0.167  0.184-  20 2.88  21 2.88  23 2.88  24 2.88  17 2.88  14 2.88  10 2.88  12 2.88
                             2 2.88   3 2.88   5 2.88   6 2.88
  12  0.833  0.167  0.184-  19 2.88  21 2.88  22 2.88  18 2.88  10 2.88  24 2.88  15 2.88  11 2.88
                             1 2.88   3 2.88   4 2.88   6 2.88
  13  0.167  0.500  0.184-  22 2.88  25 2.88  23 2.88  26 2.88  15 2.88  10 2.88  16 2.88  14 2.88
                             4 2.88   7 2.88   5 2.88   8 2.88
  14  0.500  0.500  0.184-  23 2.88  24 2.88  26 2.88  27 2.88  11 2.88  13 2.88  15 2.88  17 2.88
                             5 2.88   6 2.88   8 2.88   9 2.88
  15  0.833  0.500  0.184-  22 2.88  25 2.88  24 2.88  27 2.88  13 2.88  14 2.88  18 2.88  12 2.88
                             4 2.88   7 2.88   6 2.88   9 2.88
  16  0.167  0.833  0.184-  19 2.88  20 2.88  25 2.88  18 2.88  10 2.88  26 2.88  17 2.88  13 2.88
                             1 2.88   2 2.88   7 2.88   8 2.88
  17  0.500  0.833  0.184-  20 2.88  21 2.88  26 2.88  27 2.88  11 2.88  16 2.88  18 2.88  14 2.88
                             2 2.88   3 2.88   8 2.88   9 2.88
  18  0.833  0.833  0.184-  19 2.88  21 2.88  25 2.88  16 2.88  12 2.88  27 2.88  15 2.88  17 2.88
                             1 2.88   3 2.88   7 2.88   9 2.88
  19  0.000  0.000  0.092-  10 2.88  12 2.88  16 2.88  18 2.88  20 2.88  21 2.88  22 2.88  25 2.88
                            28 2.88  30 2.88  34 2.88  36 2.88
  20  0.333  0.000  0.092-  11 2.88  17 2.88  16 2.88  10 2.88  21 2.88  19 2.88  23 2.88  26 2.88
                            29 2.88  35 2.88  34 2.88  28 2.88
  21  0.667  0.000  0.092-  11 2.88  17 2.88  12 2.88  18 2.88  20 2.88  19 2.88  24 2.88  27 2.88
                            29 2.88  35 2.88  30 2.88  36 2.88
  22  0.000  0.333  0.092-  13 2.88  15 2.88  10 2.88  12 2.88  25 2.88  23 2.88  24 2.88  19 2.88
                            31 2.88  33 2.88  28 2.88  30 2.88
  23  0.333  0.333  0.092-  14 2.88  13 2.88  11 2.88  24 2.88  26 2.88  10 2.88  20 2.88  22 2.88
                            32 2.88  31 2.88  29 2.88  28 2.88
  24  0.667  0.333  0.092-  14 2.88  11 2.88  15 2.88  23 2.88  27 2.88  12 2.88  21 2.88  22 2.88
                            32 2.88  29 2.88  33 2.88  30 2.88
  25  0.000  0.667  0.092-  13 2.88  15 2.88  16 2.88  18 2.88  22 2.88  19 2.88  26 2.88  27 2.88
                            31 2.88  33 2.88  34 2.88  36 2.88
  26  0.333  0.667  0.092-  14 2.88  13 2.88  17 2.88  23 2.88  27 2.88  16 2.88  25 2.88  20 2.88
                            32 2.88  31 2.88  35 2.88  34 2.88
  27  0.667  0.667  0.092-  14 2.88  15 2.88  17 2.88  24 2.88  26 2.88  18 2.88  25 2.88  21 2.88
                            32 2.88  33 2.88  35 2.88  36 2.88
  28  0.167  0.167  0.000-  30 2.88  34 2.88  31 2.88  29 2.88  19 2.88  20 2.88  22 2.88  23 2.88

  29  0.500  0.167  0.000-  35 2.88  30 2.88  32 2.88  28 2.88  20 2.88  21 2.88  23 2.88  24 2.88

  30  0.833  0.167  0.000-  28 2.88  36 2.88  33 2.88  29 2.88  19 2.88  21 2.88  22 2.88  24 2.88

  31  0.167  0.500  0.000-  33 2.88  32 2.88  28 2.88  34 2.88  22 2.88  25 2.88  23 2.88  26 2.88

  32  0.500  0.500  0.000-  29 2.88  31 2.88  33 2.88  35 2.88  23 2.88  24 2.88  26 2.88  27 2.88

  33  0.833  0.500  0.000-  31 2.88  30 2.88  32 2.88  36 2.88  22 2.88  25 2.88  24 2.88  27 2.88

  34  0.167  0.833  0.000-  28 2.88  36 2.88  35 2.88  31 2.88  19 2.88  20 2.88  25 2.88  26 2.88

  35  0.500  0.833  0.000-  29 2.88  32 2.88  34 2.88  36 2.88  20 2.88  21 2.88  26 2.88  27 2.88

  36  0.833  0.833  0.000-  30 2.88  34 2.88  33 2.88  35 2.88  19 2.88  21 2.88  25 2.88  27 2.88

 
  LATTYP: Found a simple tetragonal cell.
 ALAT       =     8.6422590797
 C/A-ratio  =     2.5584745604
  
  Lattice vectors:
  
 A1 = (   8.6422590797,   0.0000000000,   0.0000000000)
 A2 = (   0.0000000000,   8.6422590797,   0.0000000000)
 A3 = (   0.0000000000,   0.0000000000,  22.1110000000)


Analysis of symmetry for initial positions (statically):
=====================================================================
 Subroutine PRICEL returns following result:
 
  LATTYP: Found a simple tetragonal cell.
 ALAT       =     2.8807530266
 C/A-ratio  =     7.6754236813
  
  Lattice vectors:
  
 A1 = (   2.8807530266,   0.0000000000,   0.0000000000)
 A2 = (   0.0000000000,   2.8807530266,   0.0000000000)
 A3 = (   0.0000000000,   0.0000000000,  22.1110000000)
 
   9 primitive cells build up your supercell.
 

 Routine SETGRP: Setting up the symmetry group for a 
 simple tetragonal supercell.


 Subroutine GETGRP returns: Found 16 space group operations
 (whereof  8 operations were pure point group operations)
 out of a pool of 16 trial point group operations.


The static configuration has the point symmetry C_4v.
 The point group associated with its full space group is D_4h.


Analysis of symmetry for dynamics (positions and initial velocities):
=====================================================================
 Subroutine PRICEL returns following result:
 
  LATTYP: Found a simple tetragonal cell.
 ALAT       =     2.8807530266
 C/A-ratio  =     7.6754236813
  
  Lattice vectors:
  
 A1 = (   2.8807530266,   0.0000000000,   0.0000000000)
 A2 = (   0.0000000000,   2.8807530266,   0.0000000000)
 A3 = (   0.0000000000,   0.0000000000,  22.1110000000)
 
   9 primitive cells build up your supercell.
 

 Routine SETGRP: Setting up the symmetry group for a 
 simple tetragonal supercell.


 Subroutine GETGRP returns: Found 16 space group operations
 (whereof  8 operations were pure point group operations)
 out of a pool of 16 trial point group operations.


The dynamic configuration has the point symmetry C_4v.
 The point group associated with its full space group is D_4h.


Analysis of constrained symmetry for selective dynamics:
=====================================================================
 Subroutine PRICEL returns following result:
 
  LATTYP: Found a simple tetragonal cell.
 ALAT       =     2.8807530266
 C/A-ratio  =     7.6754236813
  
  Lattice vectors:
  
 A1 = (   2.8807530266,   0.0000000000,   0.0000000000)
 A2 = (   0.0000000000,   2.8807530266,   0.0000000000)
 A3 = (   0.0000000000,   0.0000000000,  22.1110000000)
 
   9 primitive cells build up your supercell.
 

 Routine SETGRP: Setting up the symmetry group for a 
 simple tetragonal supercell.


 Subroutine GETGRP returns: Found  8 space group operations
 (whereof  8 operations were pure point group operations)
 out of a pool of 16 trial point group operations.


The constrained configuration has the point symmetry C_4v.


Analysis of structural, dynamic, and magnetic symmetry:
=====================================================================
 Subroutine PRICEL returns following result:
 
  LATTYP: Found a simple tetragonal cell.
 ALAT       =     2.8807530266
 C/A-ratio  =     7.6754236813
  
  Lattice vectors:
  
 A1 = (   2.8807530266,   0.0000000000,   0.0000000000)
 A2 = (   0.0000000000,   2.8807530266,   0.0000000000)
 A3 = (   0.0000000000,   0.0000000000,  22.1110000000)
 
   9 primitive cells build up your supercell.
 

 Routine SETGRP: Setting up the symmetry group for a 
 simple tetragonal supercell.


 Subroutine GETGRP returns: Found  8 space group operations
 (whereof  8 operations were pure point group operations)
 out of a pool of 16 trial point group operations.


The magnetic configuration has the point symmetry C_4v.


 Subroutine INISYM returns: Found  8 space group operations
 (whereof  8 operations are pure point group operations),
 and found     9 'primitive' translations

 
 
 KPOINTS: kpoints                                 

Automatic generation of k-mesh.
Space group operators:
 irot       det(A)        alpha          n_x          n_y          n_z        tau_x        tau_y        tau_z
    1     1.000000     0.000001     1.000000     0.000000     0.000000     0.000000     0.000000     0.000000
    2     1.000000    90.000000     0.000000     0.000000    -1.000000     0.000000     0.000000     0.000000
    3     1.000000   179.999999     0.000000     0.000000     1.000000     0.000000     0.000000     0.000000
    4     1.000000    90.000000     0.000000     0.000000     1.000000     0.000000     0.000000     0.000000
    5    -1.000000   180.000000     0.000000     1.000000     0.000000     0.000000     0.000000     0.000000
    6    -1.000000   180.000000     0.707107     0.707107     0.000000     0.000000     0.000000     0.000000
    7    -1.000000   180.000000     1.000000     0.000000     0.000000     0.000000     0.000000     0.000000
    8    -1.000000   180.000000     0.707107    -0.707107     0.000000     0.000000     0.000000     0.000000
 
 Subroutine IBZKPT returns following result:
 ===========================================
 
 Found      6 irreducible k-points:
 
 Following reciprocal coordinates:
            Coordinates               Weight
  0.083333  0.083333  0.000000      4.000000
  0.250000  0.083333  0.000000      8.000000
  0.416667  0.083333  0.000000      8.000000
  0.250000  0.250000  0.000000      4.000000
  0.416667  0.250000  0.000000      8.000000
  0.416667  0.416667  0.000000      4.000000
 
 Following cartesian coordinates:
            Coordinates               Weight
  0.009643  0.009643  0.000000      4.000000
  0.028928  0.009643  0.000000      8.000000
  0.048213  0.009643  0.000000      8.000000
  0.028928  0.028928  0.000000      4.000000
  0.048213  0.028928  0.000000      8.000000
  0.048213  0.048213  0.000000      4.000000
 


--------------------------------------------------------------------------------------------------------




 Dimension of arrays:
   k-points           NKPTS =      6   k-points in BZ     NKDIM =      6   number of bands    NBANDS=    237
   number of dos      NEDOS =    301   number of ions     NIONS =     36
   non local maximal  LDIM  =      6   non local SUM 2l+1 LMDIM =     18
   total plane-waves  NPLWV = 451584
   max r-space proj   IRMAX =   4346   max aug-charges    IRDMAX=  13643
   dimension x,y,z NGX =    56 NGY =   56 NGZ =  144
   dimension x,y,z NGXF=   112 NGYF=  112 NGZF=  288
   support grid    NGXF=   112 NGYF=  112 NGZF=  288
   ions per type =              36
   NGX,Y,Z   is equivalent  to a cutoff of  10.77, 10.77, 10.83 a.u.
   NGXF,Y,Z  is equivalent  to a cutoff of  21.54, 21.54, 21.65 a.u.

 SYSTEM =  CatImpurities                           
 POSCAR =  Ag                                      

 Startparameter for this run:
   NWRITE =      2    write-flag & timer
   PREC   = accura    normal or accurate (medium, high low for compatibility)
   ISTART =      0    job   : 0-new  1-cont  2-samecut
   ICHARG =      2    charge: 1-file 2-atom 10-const
   ISPIN  =      2    spin polarized calculation?
   LNONCOLLINEAR =      F non collinear calculations
   LSORBIT =      F    spin-orbit coupling
   INIWAV =      1    electr: 0-lowe 1-rand  2-diag
   LASPH  =      F    aspherical Exc in radial PAW
   METAGGA=      F    non-selfconsistent MetaGGA calc.

 Electronic Relaxation 1
   ENCUT  =  400.0 eV  29.40 Ry    5.42 a.u.  14.09 14.09 36.06*2*pi/ulx,y,z
   ENINI  =  400.0     initial cutoff
   ENAUG  =  412.5 eV  augmentation charge cutoff
   NELM   =   1000;   NELMIN=  2; NELMDL= -5     # of ELM steps 
   EDIFF  = 0.1E-03   stopping-criterion for ELM
   LREAL  =      T    real-space projection
   NLSPLINE    = F    spline interpolate recip. space projectors
   LCOMPAT=      F    compatible to vasp.4.4
   GGA_COMPAT  = T    GGA compatible to vasp.4.4-vasp.4.6
   LMAXPAW     = -100 max onsite density
   LMAXMIX     =    2 max onsite mixed and CHGCAR
   VOSKOWN=      0    Vosko Wilk Nusair interpolation
   ROPT   =   -0.00025
 Ionic relaxation
   EDIFFG = -.2E-01   stopping-criterion for IOM
   NSW    =    500    number of steps for IOM
   NBLOCK =      1;   KBLOCK =    500    inner block; outer block 
   IBRION =      3    ionic relax: 0-MD 1-quasi-New 2-CG
   NFREE  =      0    steps in history (QN), initial steepest desc. (CG)
   ISIF   =      2    stress and relaxation
   IWAVPR =     11    prediction:  0-non 1-charg 2-wave 3-comb
   ISYM   =      2    0-nonsym 1-usesym 2-fastsym
   LCORR  =      T    Harris-Foulkes like correction to forces

   POTIM  = 0.0000    time-step for ionic-motion
   TEIN   =    0.0    initial temperature
   TEBEG  =    0.0;   TEEND  =   0.0 temperature during run
   SMASS  =  -3.00    Nose mass-parameter (am)
   estimated Nose-frequenzy (Omega)   =  0.10E-29 period in steps =  0.00 mass=  -0.171E-26a.u.
   SCALEE = 1.0000    scale energy and forces
   NPACO  =    256;   APACO  = 16.0  distance and # of slots for P.C.
   PSTRESS=    0.0 pullay stress

  Mass of Ions in am
   POMASS = 107.87
  Ionic Valenz
   ZVAL   =  11.00
  Atomic Wigner-Seitz radii
   RWIGS  =  -1.00
  virtual crystal weights 
   VCA    =   1.00
   NELECT =     396.0000    total number of electrons
   NUPDOWN=      -1.0000    fix difference up-down

 DOS related values:
   EMIN   =  10.00;   EMAX   =-10.00  energy-range for DOS
   EFERMI =   0.00
   ISMEAR =     0;   SIGMA  =   0.10  broadening in eV -4-tet -1-fermi 0-gaus

 Electronic relaxation 2 (details)
   IALGO  =     68    algorithm
   LDIAG  =      T    sub-space diagonalisation (order eigenvalues)
   LSUBROT=      F    optimize rotation matrix (better conditioning)
   TURBO    =      0    0=normal 1=particle mesh
   IRESTART =      0    0=no restart 2=restart with 2 vectors
   NREBOOT  =      0    no. of reboots
   NMIN     =      0    reboot dimension
   EREF     =   0.00    reference energy to select bands
   IMIX   =      4    mixing-type and parameters
     AMIX     =   0.40;   BMIX     =  1.00
     AMIX_MAG =   1.60;   BMIX_MAG =  1.00
     AMIN     =   0.10
     WC   =   100.;   INIMIX=   1;  MIXPRE=   1;  MAXMIX= -45

 Intra band minimization:
   WEIMIN = 0.0010     energy-eigenvalue tresh-hold
   EBREAK =  0.11E-06  absolut break condition
   DEPER  =   0.30     relativ break condition  

   TIME   =   0.40     timestep for ELM

  volume/ion in A,a.u.               =      45.87       309.57
  Fermi-wavevector in a.u.,A,eV,Ry     =   1.017073  1.921990 14.074384  1.034438
  Thomas-Fermi vector in A             =   2.150453
 
 Write flags
   LWAVE        =      F    write WAVECAR
   LDOWNSAMPLE  =      F    k-point downsampling of WAVECAR
   LCHARG       =      F    write CHGCAR
   LVTOT        =      F    write LOCPOT, total local potential
   LVHAR        =      F    write LOCPOT, Hartree potential only
   LELF         =      F    write electronic localiz. function (ELF)
   LORBIT       =      0    0 simple, 1 ext, 2 COOP (PROOUT), +10 PAW based schemes


 Dipole corrections
   LMONO  =      F    monopole corrections only (constant potential shift)
   LDIPOL =      T    correct potential (dipole corrections)
   IDIPOL =      3    1-x, 2-y, 3-z, 4-all directions 
   EPSILON=  1.0000000 bulk dielectric constant

 Exchange correlation treatment:
   GGA     =    --    GGA type
   LEXCH   =     8    internal setting for exchange type
   VOSKOWN=      0    Vosko Wilk Nusair interpolation
   LHFCALC =     F    Hartree Fock is set to
   LHFONE  =     F    Hartree Fock one center treatment
   AEXX    =    0.0000 exact exchange contribution

 Linear response parameters
   LEPSILON=     F    determine dielectric tensor
   LRPA    =     F    only Hartree local field effects (RPA)
   LNABLA  =     F    use nabla operator in PAW spheres
   LVEL    =     F    velocity operator in full k-point grid
   LINTERFAST=   F  fast interpolation
   KINTER  =     0    interpolate to denser k-point grid
   CSHIFT  =0.1000    complex shift for real part using Kramers Kronig
   OMEGAMAX=  -1.0    maximum frequency
   DEG_THRESHOLD= 0.2000000E-02 threshold for treating states as degnerate
   RTIME   =   -0.100 relaxation time in fs
  (WPLASMAI=    0.000 imaginary part of plasma frequency in eV, 0.658/RTIME)
   DFIELD  = 0.0000000 0.0000000 0.0000000 field for delta impulse in time
 
 Orbital magnetization related:
   ORBITALMAG=     F  switch on orbital magnetization
   LCHIMAG   =     F  perturbation theory with respect to B field
   DQ        =  0.001000  dq finite difference perturbation B field
   LLRAUG    =     F  two centre corrections for induced B field



--------------------------------------------------------------------------------------------------------


 quickmin algorithm: (dynamic with friction)
   using selective dynamics as specified on POSCAR
   WARNING: If single coordinates had been selected the selection of coordinates
            is made according to the corresponding   d i r e c t   coordinates!
            Don't support selection of single cartesian coordinates -- sorry ...
  !
 charge density and potential will be updated during run
 spin polarized calculation
 RMM-DIIS sequential band-by-band and
  variant of blocked Davidson during initial phase
 perform sub-space diagonalisation
    before iterative eigenvector-optimisation
 modified Broyden-mixing scheme, WC =      100.0
 initial mixing is a Kerker type mixing with AMIX =  0.4000 and BMIX =      1.0000
 Hartree-type preconditioning will be used
 using additional bands           39
 real space projection scheme for non local part
 use partial core corrections
 calculate Harris-corrections to forces 
   (improved forces if not selfconsistent)
 use gradient corrections 
 use of overlap-Matrix (Vanderbilt PP)
 Gauss-broadening in eV      SIGMA  =   0.10


--------------------------------------------------------------------------------------------------------


  energy-cutoff  :      400.00
  volume of cell :     1651.44
      direct lattice vectors                 reciprocal lattice vectors
     8.642259080  0.000000000  0.000000000     0.115710486  0.000000000  0.000000000
     0.000000000  8.642259080  0.000000000     0.000000000  0.115710486  0.000000000
     0.000000000  0.000000000 22.111000000     0.000000000  0.000000000  0.045226358

  length of vectors
     8.642259080  8.642259080 22.111000000     0.115710486  0.115710486  0.045226358


 
 k-points in units of 2pi/SCALE and weight: kpoints                                 
   0.00964254  0.00964254  0.00000000       0.111
   0.02892762  0.00964254  0.00000000       0.222
   0.04821270  0.00964254  0.00000000       0.222
   0.02892762  0.02892762  0.00000000       0.111
   0.04821270  0.02892762  0.00000000       0.222
   0.04821270  0.04821270  0.00000000       0.111
 
 k-points in reciprocal lattice and weights: kpoints                                 
   0.08333333  0.08333333  0.00000000       0.111
   0.25000000  0.08333333  0.00000000       0.222
   0.41666667  0.08333333  0.00000000       0.222
   0.25000000  0.25000000  0.00000000       0.111
   0.41666667  0.25000000  0.00000000       0.222
   0.41666667  0.41666667  0.00000000       0.111
 
 position of ions in fractional coordinates (direct lattice) 
   0.00000000  0.00000000  0.27637827
   0.33333333  0.00000000  0.27637827
   0.66666667  0.00000000  0.27637827
   0.00000000  0.33333333  0.27637827
   0.33333333  0.33333333  0.27637827
   0.66666667  0.33333333  0.27637827
   0.00000000  0.66666667  0.27637827
   0.33333333  0.66666667  0.27637827
   0.66666667  0.66666667  0.27637827
   0.16666667  0.16666667  0.18425218
   0.50000000  0.16666667  0.18425218
   0.83333333  0.16666667  0.18425218
   0.16666667  0.50000000  0.18425218
   0.50000000  0.50000000  0.18425218
   0.83333333  0.50000000  0.18425218
   0.16666667  0.83333333  0.18425218
   0.50000000  0.83333333  0.18425218
   0.83333333  0.83333333  0.18425218
   0.00000000  0.00000000  0.09212609
   0.33333333  0.00000000  0.09212609
   0.66666667  0.00000000  0.09212609
   0.00000000  0.33333333  0.09212609
   0.33333333  0.33333333  0.09212609
   0.66666667  0.33333333  0.09212609
   0.00000000  0.66666667  0.09212609
   0.33333333  0.66666667  0.09212609
   0.66666667  0.66666667  0.09212609
   0.16666667  0.16666667  0.00000000
   0.50000000  0.16666667  0.00000000
   0.83333333  0.16666667  0.00000000
   0.16666667  0.50000000  0.00000000
   0.50000000  0.50000000  0.00000000
   0.83333333  0.50000000  0.00000000
   0.16666667  0.83333333  0.00000000
   0.50000000  0.83333333  0.00000000
   0.83333333  0.83333333  0.00000000
 
 position of ions in cartesian coordinates  (Angst):
   0.00000000  0.00000000  6.11100000
   2.88075303  0.00000000  6.11100000
   5.76150605  0.00000000  6.11100000
   0.00000000  2.88075303  6.11100000
   2.88075303  2.88075303  6.11100000
   5.76150605  2.88075303  6.11100000
   0.00000000  5.76150605  6.11100000
   2.88075303  5.76150605  6.11100000
   5.76150605  5.76150605  6.11100000
   1.44037651  1.44037651  4.07400000
   4.32112954  1.44037651  4.07400000
   7.20188257  1.44037651  4.07400000
   1.44037651  4.32112954  4.07400000
   4.32112954  4.32112954  4.07400000
   7.20188257  4.32112954  4.07400000
   1.44037651  7.20188257  4.07400000
   4.32112954  7.20188257  4.07400000
   7.20188257  7.20188257  4.07400000
   0.00000000  0.00000000  2.03700000
   2.88075303  0.00000000  2.03700000
   5.76150605  0.00000000  2.03700000
   0.00000000  2.88075303  2.03700000
   2.88075303  2.88075303  2.03700000
   5.76150605  2.88075303  2.03700000
   0.00000000  5.76150605  2.03700000
   2.88075303  5.76150605  2.03700000
   5.76150605  5.76150605  2.03700000
   1.44037651  1.44037651  0.00000000
   4.32112954  1.44037651  0.00000000
   7.20188257  1.44037651  0.00000000
   1.44037651  4.32112954  0.00000000
   4.32112954  4.32112954  0.00000000
   7.20188257  4.32112954  0.00000000
   1.44037651  7.20188257  0.00000000
   4.32112954  7.20188257  0.00000000
   7.20188257  7.20188257  0.00000000
 


--------------------------------------------------------------------------------------------------------


 k-point  1 :   0.0833 0.0833 0.0000  plane waves:   29964
 k-point  2 :   0.2500 0.0833 0.0000  plane waves:   29987
 k-point  3 :   0.4167 0.0833 0.0000  plane waves:   29997
 k-point  4 :   0.2500 0.2500 0.0000  plane waves:   30008
 k-point  5 :   0.4167 0.2500 0.0000  plane waves:   30011
 k-point  6 :   0.4167 0.4167 0.0000  plane waves:   29990

 maximum and minimum number of plane-waves per node :       856      815

 maximum number of plane-waves:     30011
 maximum index in each direction: 
   IXMAX=   14   IYMAX=   14   IZMAX=   36
   IXMIN=  -14   IYMIN=  -14   IZMIN=  -36


 real space projection operators:
  total allocation   :      21087.70 KBytes
  max/ min on nodes  :        819.28        328.92


 parallel 3D FFT for wavefunctions:
    minimum data exchange during FFTs selected (reduces bandwidth)
 parallel 3D FFT for charge:
    minimum data exchange during FFTs selected (reduces bandwidth)


 total amount of memory used by VASP MPI-rank0    87602. kBytes
=======================================================================

   base      :      30000. kBytes
   nonlr-proj:       3491. kBytes
   fftplans  :       4587. kBytes
   grid      :      10633. kBytes
   one-center:         31. kBytes
   wavefun   :      38860. kBytes
 
     INWAV:  cpu time    0.0000: real time    0.0003
 Broyden mixing: mesh for mixing (old mesh)
   NGX = 29   NGY = 29   NGZ = 73
  (NGX  =112   NGY  =112   NGZ  =288)
  gives a total of  61393 points

 initial charge density was supplied:
 charge density of overlapping atoms calculated
 number of electron     396.0000000 magnetization       0.0000000
 keeping initial charge density in first step


--------------------------------------------------------------------------------------------------------


 Maximum index for non-local projection operator          317
 Maximum index for augmentation-charges         1296 (set IRDMAX)


--------------------------------------------------------------------------------------------------------


 First call to EWALD:  gamma=   0.150
 Maximum number of real-space cells 4x 4x 2
 Maximum number of reciprocal cells 2x 2x 5

    FEWALD:  cpu time    0.0014: real time    0.0014


--------------------------------------- Iteration      1(   1)  ---------------------------------------


    POTLOK:  cpu time    0.1224: real time    0.1242
    SETDIJ:  cpu time    0.0085: real time    0.0085
     EDDAV:  cpu time    8.5824: real time    8.5843
       DOS:  cpu time    0.0064: real time    0.0064
    --------------------------------------------
      LOOP:  cpu time    8.7196: real time    8.7233

 eigenvalue-minimisations  :  5696
 total energy-change (2. order) : 0.2253042E+04  (-0.1590463E+05)
 number of electron     396.0000000 magnetization       0.0000000
 augmentation part      396.0000000 magnetization       0.0000000

 DIPCOR: dipole corrections for dipol
 direction  3 min pos   184,
 dipolmoment           0.000000      0.000000     -0.000009 electrons x Angstroem
 Tr[quadrupol]     -5172.732541

 energy correction for charged system         0.000000 eV
 dipol+quadrupol energy correction           -0.000000 eV
 added-field ion interaction          0.000023 eV  (added to PSCEN)


 Free energy of the ion-electron system (eV)
  ---------------------------------------------------
  alpha Z        PSCENC =       667.50765363
  Ewald energy   TEWEN  =    109601.38648694
  -Hartree energ DENC   =   -147641.74769859
  -exchange      EXHF   =         0.00000000
  -V(xc)+E(xc)   XCENC  =      -383.72579078
  PAW double counting   =     36124.63737575   -34464.57387230
  entropy T*S    EENTRO =        -0.08709878
  eigenvalues    EBANDS =      1008.34185055
  atomic energy  EATOM  =     37341.30342154
  Solvation  Ediel_sol  =         0.00000000
  ---------------------------------------------------
  free energy    TOTEN  =      2253.04232797 eV

  energy without entropy =     2253.12942674  energy(sigma->0) =     2253.08587735


--------------------------------------------------------------------------------------------------------




--------------------------------------- Iteration      1(   2)  ---------------------------------------


     EDDAV:  cpu time    9.1426: real time    9.1457
       DOS:  cpu time    0.0075: real time    0.0075
    --------------------------------------------
      LOOP:  cpu time    9.1501: real time    9.1532

 eigenvalue-minimisations  :  6242
 total energy-change (2. order) :-0.2248226E+04  (-0.2116314E+04)
 number of electron     396.0000000 magnetization       0.0000000
 augmentation part      396.0000000 magnetization       0.0000000

 DIPCOR: dipole corrections for dipol
 direction  3 min pos   184,
 dipolmoment           0.000000      0.000000     -0.000009 electrons x Angstroem
 Tr[quadrupol]     -5172.732541

 energy correction for charged system         0.000000 eV
 dipol+quadrupol energy correction           -0.000000 eV
 added-field ion interaction          0.000023 eV  (added to PSCEN)


 Free energy of the ion-electron system (eV)
  ---------------------------------------------------
  alpha Z        PSCENC =       667.50765363
  Ewald energy   TEWEN  =    109601.38648694
  -Hartree energ DENC   =   -147641.74769859
  -exchange      EXHF   =         0.00000000
  -V(xc)+E(xc)   XCENC  =      -383.72579078
  PAW double counting   =     36124.63737575   -34464.57387230
  entropy T*S    EENTRO =        -0.04512725
  eigenvalues    EBANDS =     -1239.92605313
  atomic energy  EATOM  =     37341.30342154
  Solvation  Ediel_sol  =         0.00000000
  ---------------------------------------------------
  free energy    TOTEN  =         4.81639582 eV

  energy without entropy =        4.86152307  energy(sigma->0) =        4.83895944


--------------------------------------------------------------------------------------------------------




--------------------------------------- Iteration      1(   3)  ---------------------------------------


     EDDAV:  cpu time    9.2220: real time    9.2263
       DOS:  cpu time    0.0083: real time    0.0083
    --------------------------------------------
      LOOP:  cpu time    9.2303: real time    9.2346

 eigenvalue-minimisations  :  6203
 total energy-change (2. order) :-0.1007595E+03  (-0.9801318E+02)
 number of electron     396.0000000 magnetization       0.0000000
 augmentation part      396.0000000 magnetization       0.0000000

 DIPCOR: dipole corrections for dipol
 direction  3 min pos   184,
 dipolmoment           0.000000      0.000000     -0.000009 electrons x Angstroem
 Tr[quadrupol]     -5172.732541

 energy correction for charged system         0.000000 eV
 dipol+quadrupol energy correction           -0.000000 eV
 added-field ion interaction          0.000023 eV  (added to PSCEN)


 Free energy of the ion-electron system (eV)
  ---------------------------------------------------
  alpha Z        PSCENC =       667.50765363
  Ewald energy   TEWEN  =    109601.38648694
  -Hartree energ DENC   =   -147641.74769859
  -exchange      EXHF   =         0.00000000
  -V(xc)+E(xc)   XCENC  =      -383.72579078
  PAW double counting   =     36124.63737575   -34464.57387230
  entropy T*S    EENTRO =        -0.04303757
  eigenvalues    EBANDS =     -1340.68766330
  atomic energy  EATOM  =     37341.30342154
  Solvation  Ediel_sol  =         0.00000000
  ---------------------------------------------------
  free energy    TOTEN  =       -95.94312468 eV

  energy without entropy =      -95.90008710  energy(sigma->0) =      -95.92160589


--------------------------------------------------------------------------------------------------------




--------------------------------------- Iteration      1(   4)  ---------------------------------------


     EDDAV:  cpu time    9.2834: real time    9.2927
       DOS:  cpu time    0.0084: real time    0.0084
    --------------------------------------------
      LOOP:  cpu time    9.2918: real time    9.3010

 eigenvalue-minimisations  :  6352
 total energy-change (2. order) :-0.1766637E+01  (-0.1761037E+01)
 number of electron     396.0000000 magnetization       0.0000000
 augmentation part      396.0000000 magnetization       0.0000000

 DIPCOR: dipole corrections for dipol
 direction  3 min pos   184,
 dipolmoment           0.000000      0.000000     -0.000009 electrons x Angstroem
 Tr[quadrupol]     -5172.732541

 energy correction for charged system         0.000000 eV
 dipol+quadrupol energy correction           -0.000000 eV
 added-field ion interaction          0.000023 eV  (added to PSCEN)


 Free energy of the ion-electron system (eV)
  ---------------------------------------------------
  alpha Z        PSCENC =       667.50765363
  Ewald energy   TEWEN  =    109601.38648694
  -Hartree energ DENC   =   -147641.74769859
  -exchange      EXHF   =         0.00000000
  -V(xc)+E(xc)   XCENC  =      -383.72579078
  PAW double counting   =     36124.63737575   -34464.57387230
  entropy T*S    EENTRO =        -0.04353616
  eigenvalues    EBANDS =     -1342.45380131
  atomic energy  EATOM  =     37341.30342154
  Solvation  Ediel_sol  =         0.00000000
  ---------------------------------------------------
  free energy    TOTEN  =       -97.70976128 eV

  energy without entropy =      -97.66622511  energy(sigma->0) =      -97.68799320


--------------------------------------------------------------------------------------------------------




--------------------------------------- Iteration      1(   5)  ---------------------------------------


     EDDAV:  cpu time    9.4739: real time    9.4844
       DOS:  cpu time    0.0084: real time    0.0084
    CHARGE:  cpu time    0.4885: real time    0.4887
    MIXING:  cpu time    0.0047: real time    0.0049
    --------------------------------------------
      LOOP:  cpu time    9.9755: real time    9.9865

 eigenvalue-minimisations  :  6440
 total energy-change (2. order) :-0.3863791E-01  (-0.3860794E-01)
 number of electron     396.0000006 magnetization      -0.0000009
 augmentation part      183.8845989 magnetization       0.0003190

 DIPCOR: dipole corrections for dipol
 direction  3 min pos   184,
 dipolmoment           0.000000      0.000000     -0.000009 electrons x Angstroem
 Tr[quadrupol]     -5172.732541

 energy correction for charged system         0.000000 eV
 dipol+quadrupol energy correction           -0.000000 eV
 added-field ion interaction          0.000023 eV  (added to PSCEN)


 Broyden mixing:
  rms(total) = 0.27554E+01    rms(broyden)= 0.27553E+01
  rms(prec ) = 0.28436E+01
  weight for this iteration     100.00

 Free energy of the ion-electron system (eV)
  ---------------------------------------------------
  alpha Z        PSCENC =       667.50765363
  Ewald energy   TEWEN  =    109601.38648694
  -Hartree energ DENC   =   -147641.74769859
  -exchange      EXHF   =         0.00000000
  -V(xc)+E(xc)   XCENC  =      -383.72579078
  PAW double counting   =     36124.63737575   -34464.57387230
  entropy T*S    EENTRO =        -0.04354988
  eigenvalues    EBANDS =     -1342.49242551
  atomic energy  EATOM  =     37341.30342154
  Solvation  Ediel_sol  =         0.00000000
  ---------------------------------------------------
  free energy    TOTEN  =       -97.74839919 eV

  energy without entropy =      -97.70484931  energy(sigma->0) =      -97.72662425


--------------------------------------------------------------------------------------------------------




--------------------------------------- Iteration      1(   6)  ---------------------------------------


    POTLOK:  cpu time    0.1188: real time    0.1227
    SETDIJ:  cpu time    0.0083: real time    0.0083
    EDDIAG:  cpu time    1.1552: real time    1.1554
  RMM-DIIS:  cpu time    5.9569: real time    5.9581
    ORTHCH:  cpu time    0.1403: real time    0.1403
       DOS:  cpu time    0.0082: real time    0.0082
    CHARGE:  cpu time    0.4870: real time    0.4872
    MIXING:  cpu time    0.0032: real time    0.0033
    --------------------------------------------
      LOOP:  cpu time    7.8779: real time    7.8834

 eigenvalue-minimisations  :  5708
 total energy-change (2. order) : 0.7346927E+01  (-0.2664472E+01)
 number of electron     396.0000007 magnetization      -0.0000128
 augmentation part      188.8400294 magnetization      -0.0000698

 DIPCOR: dipole corrections for dipol
 direction  3 min pos   176,
 dipolmoment           0.000000      0.000000      0.045334 electrons x Angstroem
 Tr[quadrupol]     -5174.577833

 energy correction for charged system         0.000000 eV
 dipol+quadrupol energy correction           -0.000113 eV
 added-field ion interaction         -1.328781 eV  (added to PSCEN)


 Broyden mixing:
  rms(total) = 0.17836E+01    rms(broyden)= 0.17835E+01
  rms(prec ) = 0.17914E+01
  weight for this iteration     100.00

 eigenvalues of (default mixing * dielectric matrix)
  average eigenvalue GAMMA=   1.3570
  1.3570

 Free energy of the ion-electron system (eV)
  ---------------------------------------------------
  alpha Z        PSCENC =       666.17873677
  Ewald energy   TEWEN  =    109601.38648694
  -Hartree energ DENC   =   -147390.36793835
  -exchange      EXHF   =         0.00000000
  -V(xc)+E(xc)   XCENC  =      -394.90148031
  PAW double counting   =     37574.03895720   -35946.63509877
  entropy T*S    EENTRO =        -0.04953287
  eigenvalues    EBANDS =     -1541.35502424
  atomic energy  EATOM  =     37341.30342154
  Solvation  Ediel_sol  =         0.00000000
  ---------------------------------------------------
  free energy    TOTEN  =       -90.40147209 eV

  energy without entropy =      -90.35193922  energy(sigma->0) =      -90.37670566


--------------------------------------------------------------------------------------------------------




--------------------------------------- Iteration      1(   7)  ---------------------------------------


    POTLOK:  cpu time    0.1182: real time    0.1216
    SETDIJ:  cpu time    0.0067: real time    0.0068
    EDDIAG:  cpu time    1.1529: real time    1.1543
  RMM-DIIS:  cpu time    5.7835: real time    5.8021
    ORTHCH:  cpu time    0.1402: real time    0.1404
       DOS:  cpu time    0.0082: real time    0.0082
    CHARGE:  cpu time    0.4821: real time    0.4825
    MIXING:  cpu time    0.0032: real time    0.0032
    --------------------------------------------
      LOOP:  cpu time    7.6951: real time    7.7190

 eigenvalue-minimisations  :  5688
 total energy-change (2. order) : 0.3274770E+00  (-0.1063801E+00)
 number of electron     396.0000007 magnetization       0.0000133
 augmentation part      189.4829131 magnetization      -0.0002488

 DIPCOR: dipole corrections for dipol
 direction  3 min pos   189,
 dipolmoment           0.000000      0.000000     -0.096439 electrons x Angstroem
 Tr[quadrupol]     -5176.345792

 energy correction for charged system         0.000000 eV
 dipol+quadrupol energy correction           -0.000510 eV
 added-field ion interaction         -1.349828 eV  (added to PSCEN)


 Broyden mixing:
  rms(total) = 0.89054E+00    rms(broyden)= 0.89053E+00
  rms(prec ) = 0.89411E+00
  weight for this iteration     100.00

 eigenvalues of (default mixing * dielectric matrix)
  average eigenvalue GAMMA=   1.7925
  1.1103  2.4748

 Free energy of the ion-electron system (eV)
  ---------------------------------------------------
  alpha Z        PSCENC =       666.15729289
  Ewald energy   TEWEN  =    109601.38648694
  -Hartree energ DENC   =   -147379.48630516
  -exchange      EXHF   =         0.00000000
  -V(xc)+E(xc)   XCENC  =      -397.41087713
  PAW double counting   =     38796.45443432   -37196.67250013
  entropy T*S    EENTRO =        -0.04313650
  eigenvalues    EBANDS =     -1521.76281190
  atomic energy  EATOM  =     37341.30342154
  Solvation  Ediel_sol  =         0.00000000
  ---------------------------------------------------
  free energy    TOTEN  =       -90.07399512 eV

  energy without entropy =      -90.03085862  energy(sigma->0) =      -90.05242687


--------------------------------------------------------------------------------------------------------




--------------------------------------- Iteration      1(   8)  ---------------------------------------


    POTLOK:  cpu time    0.1110: real time    0.1155
    SETDIJ:  cpu time    0.0068: real time    0.0068
    EDDIAG:  cpu time    1.1523: real time    1.1536
  RMM-DIIS:  cpu time    5.7943: real time    5.8307
    ORTHCH:  cpu time    0.1395: real time    0.1398
       DOS:  cpu time    0.0080: real time    0.0080
    CHARGE:  cpu time    0.4823: real time    0.4826
    MIXING:  cpu time    0.0034: real time    0.0034
    --------------------------------------------
      LOOP:  cpu time    7.6977: real time    7.7405

 eigenvalue-minimisations  :  5710
 total energy-change (2. order) :-0.2318959E+00  (-0.3589709E-01)
 number of electron     396.0000007 magnetization       0.0000093
 augmentation part      189.4064745 magnetization       0.0001845

 DIPCOR: dipole corrections for dipol
 direction  3 min pos   181,
 dipolmoment           0.000000      0.000000      0.337001 electrons x Angstroem
 Tr[quadrupol]     -5176.646144

 energy correction for charged system         0.000000 eV
 dipol+quadrupol energy correction           -0.006222 eV
 added-field ion interaction         -4.264414 eV  (added to PSCEN)


 Broyden mixing:
  rms(total) = 0.14811E+00    rms(broyden)= 0.14811E+00
  rms(prec ) = 0.32277E+00
  weight for this iteration     100.00

 eigenvalues of (default mixing * dielectric matrix)
  average eigenvalue GAMMA=   1.3361
  2.4850  1.1112  0.4122

 Free energy of the ion-electron system (eV)
  ---------------------------------------------------
  alpha Z        PSCENC =       663.23699473
  Ewald energy   TEWEN  =    109601.38648694
  -Hartree energ DENC   =   -147373.11372929
  -exchange      EXHF   =         0.00000000
  -V(xc)+E(xc)   XCENC  =      -398.28487781
  PAW double counting   =     39790.26743119   -38213.82970561
  entropy T*S    EENTRO =        -0.04657591
  eigenvalues    EBANDS =     -1501.22533682
  atomic energy  EATOM  =     37341.30342154
  Solvation  Ediel_sol  =         0.00000000
  ---------------------------------------------------
  free energy    TOTEN  =       -90.30589104 eV

  energy without entropy =      -90.25931513  energy(sigma->0) =      -90.28260308


--------------------------------------------------------------------------------------------------------




--------------------------------------- Iteration      1(   9)  ---------------------------------------


    POTLOK:  cpu time    0.1108: real time    0.1148
    SETDIJ:  cpu time    0.0075: real time    0.0075
    EDDIAG:  cpu time    1.1527: real time    1.1543
  RMM-DIIS:  cpu time    5.7860: real time    5.8013
    ORTHCH:  cpu time    0.1398: real time    0.1400
       DOS:  cpu time    0.0081: real time    0.0081
    CHARGE:  cpu time    0.4836: real time    0.4840
    MIXING:  cpu time    0.0033: real time    0.0034
    --------------------------------------------
      LOOP:  cpu time    7.6918: real time    7.7133

 eigenvalue-minimisations  :  5700
 total energy-change (2. order) : 0.3187168E+00  (-0.2059600E-01)
 number of electron     396.0000007 magnetization       0.0000041
 augmentation part      189.4253686 magnetization       0.0001000

 DIPCOR: dipole corrections for dipol
 direction  3 min pos   190,
 dipolmoment           0.000000      0.000000     -0.057400 electrons x Angstroem
 Tr[quadrupol]     -5176.867627

 energy correction for charged system         0.000000 eV
 dipol+quadrupol energy correction           -0.000181 eV
 added-field ion interaction         -0.994638 eV  (added to PSCEN)


 Broyden mixing:
  rms(total) = 0.35187E-01    rms(broyden)= 0.35184E-01
  rms(prec ) = 0.47412E-01
  weight for this iteration     100.00

 eigenvalues of (default mixing * dielectric matrix)
  average eigenvalue GAMMA=   1.2155
  2.4937  1.1221  0.8729  0.3734

 Free energy of the ion-electron system (eV)
  ---------------------------------------------------
  alpha Z        PSCENC =       666.51281159
  Ewald energy   TEWEN  =    109601.38648694
  -Hartree energ DENC   =   -147374.49735459
  -exchange      EXHF   =         0.00000000
  -V(xc)+E(xc)   XCENC  =      -398.31693554
  PAW double counting   =     39800.95905734   -38224.91787804
  entropy T*S    EENTRO =        -0.04332558
  eigenvalues    EBANDS =     -1502.37345791
  atomic energy  EATOM  =     37341.30342154
  Solvation  Ediel_sol  =         0.00000000
  ---------------------------------------------------
  free energy    TOTEN  =       -89.98717425 eV

  energy without entropy =      -89.94384866  energy(sigma->0) =      -89.96551146


--------------------------------------------------------------------------------------------------------




--------------------------------------- Iteration      1(  10)  ---------------------------------------


    POTLOK:  cpu time    0.1110: real time    0.1154
    SETDIJ:  cpu time    0.0069: real time    0.0069
    EDDIAG:  cpu time    1.1554: real time    1.1574
  RMM-DIIS:  cpu time    5.9955: real time    6.0175
    ORTHCH:  cpu time    0.1399: real time    0.1400
       DOS:  cpu time    0.0083: real time    0.0083
    CHARGE:  cpu time    0.4809: real time    0.4813
    MIXING:  cpu time    0.0056: real time    0.0056
    --------------------------------------------
      LOOP:  cpu time    7.9036: real time    7.9326

 eigenvalue-minimisations  :  5710
 total energy-change (2. order) : 0.2190971E-02  (-0.8493079E-03)
 number of electron     396.0000007 magnetization       0.0000040
 augmentation part      189.4263425 magnetization       0.0000055

 DIPCOR: dipole corrections for dipol
 direction  3 min pos   181,
 dipolmoment           0.000000      0.000000      0.047486 electrons x Angstroem
 Tr[quadrupol]     -5177.053546

 energy correction for charged system         0.000000 eV
 dipol+quadrupol energy correction           -0.000124 eV
 added-field ion interaction         -0.600887 eV  (added to PSCEN)


 Broyden mixing:
  rms(total) = 0.16218E-01    rms(broyden)= 0.16218E-01
  rms(prec ) = 0.31424E-01
  weight for this iteration     100.00

 eigenvalues of (default mixing * dielectric matrix)
  average eigenvalue GAMMA=   1.2195
  2.4820  1.4801  1.0917  0.6947  0.3491

 Free energy of the ion-electron system (eV)
  ---------------------------------------------------
  alpha Z        PSCENC =       666.90661960
  Ewald energy   TEWEN  =    109601.38648694
  -Hartree energ DENC   =   -147379.74154607
  -exchange      EXHF   =         0.00000000
  -V(xc)+E(xc)   XCENC  =      -398.32735318
  PAW double counting   =     39792.09342998   -38216.12334410
  entropy T*S    EENTRO =        -0.04252208
  eigenvalues    EBANDS =     -1497.44017592
  atomic energy  EATOM  =     37341.30342154
  Solvation  Ediel_sol  =         0.00000000
  ---------------------------------------------------
  free energy    TOTEN  =       -89.98498328 eV

  energy without entropy =      -89.94246120  energy(sigma->0) =      -89.96372224


--------------------------------------------------------------------------------------------------------




--------------------------------------- Iteration      1(  11)  ---------------------------------------


    POTLOK:  cpu time    0.1144: real time    0.1149
    SETDIJ:  cpu time    0.0069: real time    0.0069
    EDDIAG:  cpu time    1.1535: real time    1.1548
  RMM-DIIS:  cpu time    5.6546: real time    5.6716
    ORTHCH:  cpu time    0.1398: real time    0.1401
       DOS:  cpu time    0.0081: real time    0.0082
    CHARGE:  cpu time    0.4824: real time    0.4830
    MIXING:  cpu time    0.0036: real time    0.0036
    --------------------------------------------
      LOOP:  cpu time    7.5633: real time    7.5831

 eigenvalue-minimisations  :  5545
 total energy-change (2. order) : 0.2303274E-02  (-0.8686033E-04)
 number of electron     396.0000007 magnetization       0.0000031
 augmentation part      189.4283835 magnetization       0.0000030

 DIPCOR: dipole corrections for dipol
 direction  3 min pos   176,
 dipolmoment           0.000000      0.000000      0.048363 electrons x Angstroem
 Tr[quadrupol]     -5177.182046

 energy correction for charged system         0.000000 eV
 dipol+quadrupol energy correction           -0.000128 eV
 added-field ion interaction         -1.417546 eV  (added to PSCEN)


 Broyden mixing:
  rms(total) = 0.89649E-02    rms(broyden)= 0.89648E-02
  rms(prec ) = 0.15545E-01
  weight for this iteration     100.00

 eigenvalues of (default mixing * dielectric matrix)
  average eigenvalue GAMMA=   1.3631
  2.5219  2.3225  1.0852  0.9517  0.9517  0.3456

 Free energy of the ion-electron system (eV)
  ---------------------------------------------------
  alpha Z        PSCENC =       666.08995614
  Ewald energy   TEWEN  =    109601.38648694
  -Hartree energ DENC   =   -147384.06746348
  -exchange      EXHF   =         0.00000000
  -V(xc)+E(xc)   XCENC  =      -398.31469907
  PAW double counting   =     39771.84769199   -38195.70852300
  entropy T*S    EENTRO =        -0.04236977
  eigenvalues    EBANDS =     -1492.47718130
  atomic energy  EATOM  =     37341.30342154
  Solvation  Ediel_sol  =         0.00000000
  ---------------------------------------------------
  free energy    TOTEN  =       -89.98268000 eV

  energy without entropy =      -89.94031023  energy(sigma->0) =      -89.96149512


--------------------------------------------------------------------------------------------------------




--------------------------------------- Iteration      1(  12)  ---------------------------------------


    POTLOK:  cpu time    0.1109: real time    0.1168
    SETDIJ:  cpu time    0.0068: real time    0.0068
    EDDIAG:  cpu time    1.1786: real time    1.1818
  RMM-DIIS:  cpu time    5.7550: real time    5.7648
    ORTHCH:  cpu time    0.1405: real time    0.1405
       DOS:  cpu time    0.0082: real time    0.0082
    CHARGE:  cpu time    0.4826: real time    0.4826
    MIXING:  cpu time    0.0037: real time    0.0037
    --------------------------------------------
      LOOP:  cpu time    7.6863: real time    7.7052

 eigenvalue-minimisations  :  5676
 total energy-change (2. order) :-0.4692159E-03  (-0.2644189E-03)
 number of electron     396.0000007 magnetization       0.0000028
 augmentation part      189.4286000 magnetization      -0.0000002

 DIPCOR: dipole corrections for dipol
 direction  3 min pos   174,
 dipolmoment           0.000000      0.000000      0.009982 electrons x Angstroem
 Tr[quadrupol]     -5177.493830

 energy correction for charged system         0.000000 eV
 dipol+quadrupol energy correction           -0.000005 eV
 added-field ion interaction         -0.359096 eV  (added to PSCEN)


 Broyden mixing:
  rms(total) = 0.80421E-02    rms(broyden)= 0.80420E-02
  rms(prec ) = 0.20583E-01
  weight for this iteration     100.00

 eigenvalues of (default mixing * dielectric matrix)
  average eigenvalue GAMMA=   1.3143
  2.4674  2.4674  1.1039  1.0118  1.0118  0.7916  0.3463

 Free energy of the ion-electron system (eV)
  ---------------------------------------------------
  alpha Z        PSCENC =       667.14852899
  Ewald energy   TEWEN  =    109601.38648694
  -Hartree energ DENC   =   -147392.93259197
  -exchange      EXHF   =         0.00000000
  -V(xc)+E(xc)   XCENC  =      -398.29083726
  PAW double counting   =     39746.09732556   -38169.81619586
  entropy T*S    EENTRO =        -0.04193536
  eigenvalues    EBANDS =     -1484.83735180
  atomic energy  EATOM  =     37341.30342154
  Solvation  Ediel_sol  =         0.00000000
  ---------------------------------------------------
  free energy    TOTEN  =       -89.98314922 eV

  energy without entropy =      -89.94121386  energy(sigma->0) =      -89.96218154


--------------------------------------------------------------------------------------------------------




--------------------------------------- Iteration      1(  13)  ---------------------------------------


    POTLOK:  cpu time    0.1111: real time    0.1150
    SETDIJ:  cpu time    0.0068: real time    0.0068
    EDDIAG:  cpu time    1.1518: real time    1.1520
  RMM-DIIS:  cpu time    3.6711: real time    3.6908
    ORTHCH:  cpu time    0.1538: real time    0.1538
       DOS:  cpu time    0.0082: real time    0.0082
    CHARGE:  cpu time    0.5596: real time    0.5597
    MIXING:  cpu time    0.0039: real time    0.0039
    --------------------------------------------
      LOOP:  cpu time    5.6661: real time    5.6902

 eigenvalue-minimisations  :  3402
 total energy-change (2. order) : 0.4995611E-03  (-0.1612014E-04)
 number of electron     396.0000007 magnetization       0.0000011
 augmentation part      189.4295621 magnetization       0.0000038

 DIPCOR: dipole corrections for dipol
 direction  3 min pos   185,
 dipolmoment           0.000000      0.000000     -0.015893 electrons x Angstroem
 Tr[quadrupol]     -5177.543107

 energy correction for charged system         0.000000 eV
 dipol+quadrupol energy correction           -0.000014 eV
 added-field ion interaction         -0.010670 eV  (added to PSCEN)


 Broyden mixing:
  rms(total) = 0.53544E-02    rms(broyden)= 0.53544E-02
  rms(prec ) = 0.14449E-01
  weight for this iteration     100.00

 eigenvalues of (default mixing * dielectric matrix)
  average eigenvalue GAMMA=   1.3869
  2.4912  2.4912  1.8856  1.2749  1.1057  0.3462  0.7500  0.7500

 Free energy of the ion-electron system (eV)
  ---------------------------------------------------
  alpha Z        PSCENC =       667.49694686
  Ewald energy   TEWEN  =    109601.38648694
  -Hartree energ DENC   =   -147395.88271041
  -exchange      EXHF   =         0.00000000
  -V(xc)+E(xc)   XCENC  =      -398.28382033
  PAW double counting   =     39743.24567016   -38166.92742875
  entropy T*S    EENTRO =        -0.04174176
  eigenvalues    EBANDS =     -1482.27947391
  atomic energy  EATOM  =     37341.30342154
  Solvation  Ediel_sol  =         0.00000000
  ---------------------------------------------------
  free energy    TOTEN  =       -89.98264966 eV

  energy without entropy =      -89.94090789  energy(sigma->0) =      -89.96177878


--------------------------------------------------------------------------------------------------------




--------------------------------------- Iteration      1(  14)  ---------------------------------------


    POTLOK:  cpu time    0.1123: real time    0.1155
    SETDIJ:  cpu time    0.0073: real time    0.0073
    EDDIAG:  cpu time    1.1540: real time    1.1542
  RMM-DIIS:  cpu time    5.8253: real time    5.8263
    ORTHCH:  cpu time    0.1895: real time    0.1895
       DOS:  cpu time    0.0082: real time    0.0082
    CHARGE:  cpu time    0.4843: real time    0.4845
    MIXING:  cpu time    0.0040: real time    0.0040
    --------------------------------------------
      LOOP:  cpu time    7.7849: real time    7.7894

 eigenvalue-minimisations  :  5628
 total energy-change (2. order) :-0.4577821E-03  (-0.2024715E-03)
 number of electron     396.0000007 magnetization       0.0000014
 augmentation part      189.4282179 magnetization      -0.0000061

 DIPCOR: dipole corrections for dipol
 direction  3 min pos   191,
 dipolmoment           0.000000      0.000000      0.007160 electrons x Angstroem
 Tr[quadrupol]     -5177.685389

 energy correction for charged system         0.000000 eV
 dipol+quadrupol energy correction           -0.000003 eV
 added-field ion interaction          0.147928 eV  (added to PSCEN)


 Broyden mixing:
  rms(total) = 0.62405E-02    rms(broyden)= 0.62404E-02
  rms(prec ) = 0.15657E-01
  weight for this iteration     100.00

 eigenvalues of (default mixing * dielectric matrix)
  average eigenvalue GAMMA=   1.3930
  3.2280  2.4874  1.6792  0.3461  1.2360  1.0637  0.9342  0.9342  0.6277

 Free energy of the ion-electron system (eV)
  ---------------------------------------------------
  alpha Z        PSCENC =       667.65555539
  Ewald energy   TEWEN  =    109601.38648694
  -Hartree energ DENC   =   -147399.75286219
  -exchange      EXHF   =         0.00000000
  -V(xc)+E(xc)   XCENC  =      -398.27166199
  PAW double counting   =     39742.31651569   -38165.99732974
  entropy T*S    EENTRO =        -0.04154930
  eigenvalues    EBANDS =     -1478.58168379
  atomic energy  EATOM  =     37341.30342154
  Solvation  Ediel_sol  =         0.00000000
  ---------------------------------------------------
  free energy    TOTEN  =       -89.98310744 eV

  energy without entropy =      -89.94155814  energy(sigma->0) =      -89.96233279


--------------------------------------------------------------------------------------------------------




--------------------------------------- Iteration      1(  15)  ---------------------------------------


    POTLOK:  cpu time    0.1148: real time    0.1150
    SETDIJ:  cpu time    0.0070: real time    0.0070
    EDDIAG:  cpu time    1.1524: real time    1.1527
  RMM-DIIS:  cpu time    3.5129: real time    3.5135
    ORTHCH:  cpu time    0.1396: real time    0.1398
       DOS:  cpu time    0.0082: real time    0.0082
    CHARGE:  cpu time    0.4844: real time    0.4869
    MIXING:  cpu time    0.0058: real time    0.0059
    --------------------------------------------
      LOOP:  cpu time    5.4252: real time    5.4290

 eigenvalue-minimisations  :  3248
 total energy-change (2. order) : 0.3149201E-03  (-0.5844198E-05)
 number of electron     396.0000007 magnetization       0.0000009
 augmentation part      189.4277966 magnetization       0.0000005

 DIPCOR: dipole corrections for dipol
 direction  3 min pos   193,
 dipolmoment           0.000000      0.000000      0.002271 electrons x Angstroem
 Tr[quadrupol]     -5177.749669

 energy correction for charged system         0.000000 eV
 dipol+quadrupol energy correction           -0.000000 eV
 added-field ion interaction          0.062057 eV  (added to PSCEN)


 Broyden mixing:
  rms(total) = 0.39842E-02    rms(broyden)= 0.39842E-02
  rms(prec ) = 0.10036E-01
  weight for this iteration     100.00

 eigenvalues of (default mixing * dielectric matrix)
  average eigenvalue GAMMA=   1.4494
  3.3199  2.5406  1.5640  1.5640  1.3562  1.1552  1.1552  0.3461  0.8639  0.6285

 Free energy of the ion-electron system (eV)
  ---------------------------------------------------
  alpha Z        PSCENC =       667.56968723
  Ewald energy   TEWEN  =    109601.38648694
  -Hartree energ DENC   =   -147401.74485323
  -exchange      EXHF   =         0.00000000
  -V(xc)+E(xc)   XCENC  =      -398.26538011
  PAW double counting   =     39739.91567537   -38163.57758273
  entropy T*S    EENTRO =        -0.04144036
  eigenvalues    EBANDS =     -1476.52880717
  atomic energy  EATOM  =     37341.30342154
  Solvation  Ediel_sol  =         0.00000000
  ---------------------------------------------------
  free energy    TOTEN  =       -89.98279252 eV

  energy without entropy =      -89.94135216  energy(sigma->0) =      -89.96207234


--------------------------------------------------------------------------------------------------------




--------------------------------------- Iteration      1(  16)  ---------------------------------------


    POTLOK:  cpu time    0.1131: real time    0.1165
    SETDIJ:  cpu time    0.0070: real time    0.0070
    EDDIAG:  cpu time    1.1547: real time    1.1551
  RMM-DIIS:  cpu time    4.6650: real time    4.6669
    ORTHCH:  cpu time    0.1398: real time    0.1398
       DOS:  cpu time    0.0083: real time    0.0083
    --------------------------------------------
      LOOP:  cpu time    6.0879: real time    6.0935

 eigenvalue-minimisations  :  4466
 total energy-change (2. order) : 0.3323194E-04  (-0.5291604E-04)
 number of electron     396.0000007 magnetization       0.0000009
 augmentation part      189.4277966 magnetization       0.0000005

 DIPCOR: dipole corrections for dipol
 direction  3 min pos   185,
 dipolmoment           0.000000      0.000000     -0.005399 electrons x Angstroem
 Tr[quadrupol]     -5177.786116

 energy correction for charged system         0.000000 eV
 dipol+quadrupol energy correction           -0.000002 eV
 added-field ion interaction         -0.003624 eV  (added to PSCEN)


 Free energy of the ion-electron system (eV)
  ---------------------------------------------------
  alpha Z        PSCENC =       667.50400457
  Ewald energy   TEWEN  =    109601.38648694
  -Hartree energ DENC   =   -147402.97119833
  -exchange      EXHF   =         0.00000000
  -V(xc)+E(xc)   XCENC  =      -398.26273735
  PAW double counting   =     39739.58059972   -38163.23019263
  entropy T*S    EENTRO =        -0.04139366
  eigenvalues    EBANDS =     -1475.25175009
  atomic energy  EATOM  =     37341.30342154
  Solvation  Ediel_sol  =         0.00000000
  ---------------------------------------------------
  free energy    TOTEN  =       -89.98275929 eV

  energy without entropy =      -89.94136563  energy(sigma->0) =      -89.96206246


--------------------------------------------------------------------------------------------------------




 average (electrostatic) potential at core
  the test charge radii are     1.1249
  (the norm of the test charge is              1.0000)
       1 -78.4486       2 -78.4486       3 -78.4486       4 -78.4486       5 -78.4486
       6 -78.4486       7 -78.4486       8 -78.4486       9 -78.4486      10 -78.7862
      11 -78.7862      12 -78.7862      13 -78.7862      14 -78.7862      15 -78.7862
      16 -78.7862      17 -78.7862      18 -78.7862      19 -78.7834      20 -78.7834
      21 -78.7834      22 -78.7834      23 -78.7834      24 -78.7834      25 -78.7834
      26 -78.7834      27 -78.7834      28 -78.4402      29 -78.4402      30 -78.4402
      31 -78.4402      32 -78.4402      33 -78.4402      34 -78.4402      35 -78.4402
      36 -78.4402
 
 
 
 E-fermi :   0.5275     XC(G=0):  -5.3710     alpha+bet : -5.0037


 spin component 1

 k-point     1 :       0.0833    0.0833    0.0000
  band No.  band energies     occupation 
      1      -6.8269      1.00000
      2      -5.8589      1.00000
      3      -5.7180      1.00000
      4      -5.7180      1.00000
      5      -5.7158      1.00000
      6      -5.6698      1.00000
      7      -5.6698      1.00000
      8      -5.6257      1.00000
      9      -5.6257      1.00000
     10      -5.5787      1.00000
     11      -5.5787      1.00000
     12      -5.4564      1.00000
     13      -5.4550      1.00000
     14      -5.4306      1.00000
     15      -5.4028      1.00000
     16      -5.3519      1.00000
     17      -5.3297      1.00000
     18      -5.3297      1.00000
     19      -5.3199      1.00000
     20      -5.3199      1.00000
     21      -5.2980      1.00000
     22      -5.2980      1.00000
     23      -5.2445      1.00000
     24      -5.2445      1.00000
     25      -5.2406      1.00000
     26      -5.2234      1.00000
     27      -5.2188      1.00000
     28      -5.2112      1.00000
     29      -5.1981      1.00000
     30      -5.1871      1.00000
     31      -5.1871      1.00000
     32      -5.1105      1.00000
     33      -5.1039      1.00000
     34      -5.1039      1.00000
     35      -5.0368      1.00000
     36      -5.0368      1.00000
     37      -4.9563      1.00000
     38      -4.9563      1.00000
     39      -4.7617      1.00000
     40      -4.7347      1.00000
     41      -4.7347      1.00000
     42      -4.7265      1.00000
     43      -4.7265      1.00000
     44      -4.7141      1.00000
     45      -4.7068      1.00000
     46      -4.7003      1.00000
     47      -4.6992      1.00000
     48      -4.6774      1.00000
     49      -4.6759      1.00000
     50      -4.6759      1.00000
     51      -4.6438      1.00000
     52      -4.6130      1.00000
     53      -4.6130      1.00000
     54      -4.5900      1.00000
     55      -4.5900      1.00000
     56      -4.5369      1.00000
     57      -4.5369      1.00000
     58      -4.4977      1.00000
     59      -4.4331      1.00000
     60      -4.4221      1.00000
     61      -4.4221      1.00000
     62      -4.4062      1.00000
     63      -4.4062      1.00000
     64      -4.4050      1.00000
     65      -4.2882      1.00000
     66      -4.2882      1.00000
     67      -4.2665      1.00000
     68      -4.2665      1.00000
     69      -4.1946      1.00000
     70      -4.1714      1.00000
     71      -4.1626      1.00000
     72      -4.1526      1.00000
     73      -4.1526      1.00000
     74      -4.1098      1.00000
     75      -4.1098      1.00000
     76      -4.0854      1.00000
     77      -4.0854      1.00000
     78      -4.0609      1.00000
     79      -4.0609      1.00000
     80      -4.0432      1.00000
     81      -4.0432      1.00000
     82      -4.0026      1.00000
     83      -4.0026      1.00000
     84      -3.9783      1.00000
     85      -3.9783      1.00000
     86      -3.9373      1.00000
     87      -3.9241      1.00000
     88      -3.9241      1.00000
     89      -3.8882      1.00000
     90      -3.8882      1.00000
     91      -3.8860      1.00000
     92      -3.8860      1.00000
     93      -3.8710      1.00000
     94      -3.8695      1.00000
     95      -3.7976      1.00000
     96      -3.7976      1.00000
     97      -3.7291      1.00000
     98      -3.7291      1.00000
     99      -3.6067      1.00000
    100      -3.6067      1.00000
    101      -3.6040      1.00000
    102      -3.5789      1.00000
    103      -3.5789      1.00000
    104      -3.5654      1.00000
    105      -3.5061      1.00000
    106      -3.5061      1.00000
    107      -3.4955      1.00000
    108      -3.4681      1.00000
    109      -3.4681      1.00000
    110      -3.4441      1.00000
    111      -3.4122      1.00000
    112      -3.3626      1.00000
    113      -3.3535      1.00000
    114      -3.3535      1.00000
    115      -3.3534      1.00000
    116      -3.3534      1.00000
    117      -3.3482      1.00000
    118      -3.3414      1.00000
    119      -3.3414      1.00000
    120      -3.3408      1.00000
    121      -3.2587      1.00000
    122      -3.2530      1.00000
    123      -3.2530      1.00000
    124      -3.2283      1.00000
    125      -3.2020      1.00000
    126      -3.2020      1.00000
    127      -3.1929      1.00000
    128      -3.1898      1.00000
    129      -3.1435      1.00000
    130      -3.1435      1.00000
    131      -3.1173      1.00000
    132      -3.1173      1.00000
    133      -3.1172      1.00000
    134      -3.1172      1.00000
    135      -3.1104      1.00000
    136      -3.0965      1.00000
    137      -3.0618      1.00000
    138      -3.0618      1.00000
    139      -3.0382      1.00000
    140      -3.0382      1.00000
    141      -3.0234      1.00000
    142      -3.0206      1.00000
    143      -3.0206      1.00000
    144      -3.0100      1.00000
    145      -3.0046      1.00000
    146      -2.9904      1.00000
    147      -2.9789      1.00000
    148      -2.9789      1.00000
    149      -2.8910      1.00000
    150      -2.8879      1.00000
    151      -2.8744      1.00000
    152      -2.8685      1.00000
    153      -2.8318      1.00000
    154      -2.8318      1.00000
    155      -2.8166      1.00000
    156      -2.8105      1.00000
    157      -2.8105      1.00000
    158      -2.7874      1.00000
    159      -2.7874      1.00000
    160      -2.7821      1.00000
    161      -2.7821      1.00000
    162      -2.7794      1.00000
    163      -2.7692      1.00000
    164      -2.7494      1.00000
    165      -2.7494      1.00000
    166      -2.7130      1.00000
    167      -2.7130      1.00000
    168      -2.6161      1.00000
    169      -2.6103      1.00000
    170      -2.6030      1.00000
    171      -2.6030      1.00000
    172      -2.5782      1.00000
    173      -2.5782      1.00000
    174      -2.5608      1.00000
    175      -2.5608      1.00000
    176      -2.5349      1.00000
    177      -2.5349      1.00000
    178      -2.5165      1.00000
    179      -2.5119      1.00000
    180      -2.4826      1.00000
    181      -2.4719      1.00000
    182      -2.4719      1.00000
    183      -2.4357      1.00000
    184      -2.4260      1.00000
    185      -2.2857      1.00000
    186      -2.2857      1.00000
    187      -2.2295      1.00000
    188      -2.2295      1.00000
    189      -2.0839      1.00000
    190      -1.6857      1.00000
    191      -1.6857      1.00000
    192      -1.6037      1.00000
    193      -0.9044      1.00000
    194      -0.9044      1.00000
    195      -0.2495      1.00000
    196      -0.1673      1.00000
    197      -0.1673      1.00000
    198      -0.0796      1.00000
    199       0.3254      0.99787
    200       0.4171      0.94080
    201       0.4171      0.94080
    202       0.6421      0.05259
    203       0.6421      0.05259
    204       1.3615      0.00000
    205       1.8697      0.00000
    206       1.9060      0.00000
    207       2.3746      0.00000
    208       2.3746      0.00000
    209       2.6199      0.00000
    210       2.6199      0.00000
    211       2.7526      0.00000
    212       2.7526      0.00000
    213       3.3401      0.00000
    214       3.7463      0.00000
    215       3.7463      0.00000
    216       4.2784      0.00000
    217       4.4587      0.00000
    218       4.4587      0.00000
    219       4.5344      0.00000
    220       4.5344      0.00000
    221       4.5386      0.00000
    222       4.5489      0.00000
    223       4.6648      0.00000
    224       4.7527      0.00000
    225       4.7527      0.00000
    226       4.9012      0.00000
    227       4.9012      0.00000
    228       4.9397      0.00000
    229       4.9397      0.00000
    230       5.5928      0.00000
    231       5.7410      0.00000
    232       5.7466      0.00000
    233       5.7468      0.00000
    234       5.9513      0.00000
    235       6.2550      0.00000
    236       6.2624      0.00000
    237       6.3110      0.00000

 k-point     2 :       0.2500    0.0833    0.0000
  band No.  band energies     occupation 
      1      -6.7058      1.00000
      2      -5.8966      1.00000
      3      -5.7900      1.00000
      4      -5.6825      1.00000
      5      -5.6735      1.00000
      6      -5.6496      1.00000
      7      -5.6199      1.00000
      8      -5.5840      1.00000
      9      -5.5736      1.00000
     10      -5.5468      1.00000
     11      -5.5462      1.00000
     12      -5.5290      1.00000
     13      -5.4860      1.00000
     14      -5.4720      1.00000
     15      -5.4429      1.00000
     16      -5.3999      1.00000
     17      -5.3955      1.00000
     18      -5.3781      1.00000
     19      -5.3755      1.00000
     20      -5.3509      1.00000
     21      -5.2647      1.00000
     22      -5.2313      1.00000
     23      -5.2263      1.00000
     24      -5.2079      1.00000
     25      -5.1879      1.00000
     26      -5.1440      1.00000
     27      -5.1434      1.00000
     28      -5.1378      1.00000
     29      -5.1230      1.00000
     30      -5.1145      1.00000
     31      -5.1021      1.00000
     32      -5.0851      1.00000
     33      -5.0359      1.00000
     34      -5.0235      1.00000
     35      -4.9812      1.00000
     36      -4.9632      1.00000
     37      -4.9569      1.00000
     38      -4.9249      1.00000
     39      -4.9026      1.00000
     40      -4.8212      1.00000
     41      -4.8094      1.00000
     42      -4.7679      1.00000
     43      -4.7511      1.00000
     44      -4.7498      1.00000
     45      -4.7496      1.00000
     46      -4.7356      1.00000
     47      -4.7283      1.00000
     48      -4.7277      1.00000
     49      -4.6903      1.00000
     50      -4.6624      1.00000
     51      -4.6582      1.00000
     52      -4.6441      1.00000
     53      -4.6314      1.00000
     54      -4.6222      1.00000
     55      -4.5636      1.00000
     56      -4.4678      1.00000
     57      -4.4346      1.00000
     58      -4.4300      1.00000
     59      -4.4264      1.00000
     60      -4.4185      1.00000
     61      -4.4052      1.00000
     62      -4.3867      1.00000
     63      -4.3730      1.00000
     64      -4.3600      1.00000
     65      -4.3057      1.00000
     66      -4.2901      1.00000
[...]
 -0.000  -0.000   0.019   0.000   0.000  -0.000  -0.000   0.018
 -0.000  -0.000  -0.000   0.016   0.000  -0.000  -0.000  -0.000
  0.000   0.020   0.000  -0.000   0.000   0.000   0.019   0.000
 -0.000  -0.000   0.024   0.000   0.000  -0.000  -0.000   0.023
 -0.000  -0.000  -0.000   0.020   0.000  -0.000  -0.000  -0.000
 pseudopotential strength for first ion, spin component:           2
 -8.253   0.000   0.000  -0.000  -0.000  -8.312   0.000   0.000
  0.000  -8.258  -0.000  -0.000   0.000   0.000  -8.317  -0.000
  0.000  -0.000  -8.253   0.000   0.000   0.000  -0.000  -8.312
 -0.000  -0.000   0.000  -8.258   0.000  -0.000  -0.000   0.000
 -0.000   0.000   0.000   0.000  -8.269  -0.000   0.000   0.000
 -8.312   0.000   0.000  -0.000  -0.000  -8.343   0.000   0.000
  0.000  -8.317  -0.000  -0.000   0.000   0.000  -8.348  -0.000
  0.000  -0.000  -8.312   0.000   0.000   0.000  -0.000  -8.343
 -0.000  -0.000   0.000  -8.317   0.000  -0.000  -0.000   0.000
 -0.000   0.000   0.000   0.000  -8.327  -0.000   0.000   0.000
  0.000   0.000  -0.004  -0.000   0.000   0.000   0.000  -0.004
  0.000   0.000  -0.006  -0.000   0.000   0.000   0.000  -0.006
  0.000   0.016   0.000  -0.000   0.000   0.000   0.015   0.000
 -0.000  -0.000   0.019   0.000   0.000  -0.000  -0.000   0.018
 -0.000  -0.000  -0.000   0.016   0.000  -0.000  -0.000  -0.000
  0.000   0.020   0.000  -0.000   0.000   0.000   0.019   0.000
 -0.000  -0.000   0.024   0.000   0.000  -0.000  -0.000   0.023
 -0.000  -0.000  -0.000   0.020   0.000  -0.000  -0.000  -0.000
 total augmentation occupancy for first ion, spin component:           1
  3.086   0.000   0.000   0.000  -0.000  -0.986   0.000   0.000   0.000  -0.000   0.000  -0.000   0.000   0.000  -0.000   0.000
  0.000   2.891   0.000   0.000   0.000   0.000  -0.862  -0.000   0.000  -0.000  -0.000  -0.000   0.160  -0.000  -0.000  -0.002
  0.000  -0.000   3.098   0.000  -0.000   0.000  -0.000  -0.992  -0.000   0.000   0.342  -0.034  -0.000   0.123   0.000   0.000
  0.000  -0.000   0.000   2.891   0.000  -0.000   0.000   0.000  -0.862   0.000  -0.000   0.000  -0.000   0.000   0.160   0.000
  0.000  -0.000  -0.000   0.000   2.997  -0.000   0.000   0.000   0.000  -1.121  -0.000   0.000  -0.000  -0.000   0.000   0.000
 -0.986   0.000  -0.000  -0.000  -0.000   0.858   0.000   0.000   0.000  -0.000  -0.000   0.000   0.000  -0.000  -0.000   0.000
  0.000  -0.862  -0.000   0.000   0.000   0.000   0.796   0.000  -0.000  -0.000   0.000   0.000  -0.170  -0.000  -0.000   0.011
 -0.000  -0.000  -0.992   0.000   0.000   0.000   0.000   0.863   0.000  -0.000  -0.319   0.042  -0.000  -0.141   0.000  -0.000
  0.000   0.000   0.000  -0.862  -0.000   0.000  -0.000   0.000   0.796  -0.000   0.000   0.000   0.000   0.000  -0.170  -0.000
 -0.000  -0.000   0.000   0.000  -1.121  -0.000   0.000  -0.000   0.000   1.182   0.000   0.000   0.000   0.000   0.000   0.000
 -0.000   0.000   0.342   0.000  -0.000  -0.000  -0.000  -0.319  -0.000  -0.000   1.945  -0.308  -0.000  -0.162   0.000  -0.000
  0.000   0.000  -0.034   0.000   0.000  -0.000   0.000   0.042   0.000  -0.000  -0.308   0.067  -0.000   0.042   0.000  -0.000
  0.000   0.160  -0.000  -0.000  -0.000   0.000  -0.170   0.000  -0.000   0.000   0.000   0.000   0.132  -0.000   0.000  -0.008
  0.000  -0.000   0.123   0.000  -0.000   0.000  -0.000  -0.141   0.000   0.000  -0.162   0.042  -0.000   0.076   0.000  -0.000
 -0.000   0.000   0.000   0.160   0.000   0.000  -0.000  -0.000  -0.170   0.000  -0.000  -0.000   0.000  -0.000   0.132  -0.000
 -0.000  -0.002  -0.000   0.000  -0.000   0.000   0.011   0.000  -0.000  -0.000   0.000  -0.000  -0.008   0.000  -0.000   0.001
 -0.000   0.000   0.005  -0.000  -0.000  -0.000  -0.000   0.007  -0.000  -0.000   0.017  -0.004   0.000  -0.005  -0.000   0.000
  0.000   0.000   0.000  -0.002   0.000   0.000  -0.000   0.000   0.011   0.000   0.000  -0.000   0.000   0.000  -0.008   0.000
 total augmentation occupancy for first ion, spin component:           2
 -0.000  -0.000  -0.000   0.000   0.000   0.000  -0.000   0.000  -0.000  -0.000  -0.000   0.000  -0.000   0.000   0.000  -0.000
 -0.000   0.000  -0.000  -0.000  -0.000  -0.000  -0.000  -0.000  -0.000   0.000   0.000   0.000   0.000  -0.000  -0.000  -0.000
 -0.000  -0.000  -0.000   0.000  -0.000  -0.000  -0.000   0.000   0.000   0.000  -0.000   0.000  -0.000   0.000   0.000   0.000
  0.000  -0.000  -0.000   0.000   0.000   0.000   0.000  -0.000  -0.000  -0.000   0.000   0.000  -0.000   0.000   0.000  -0.000
  0.000   0.000  -0.000   0.000   0.000  -0.000   0.000  -0.000   0.000  -0.000   0.000  -0.000   0.000  -0.000   0.000   0.000
  0.000   0.000  -0.000   0.000  -0.000  -0.000  -0.000  -0.000  -0.000   0.000   0.000  -0.000   0.000  -0.000   0.000  -0.000
  0.000  -0.000  -0.000   0.000   0.000  -0.000   0.000  -0.000  -0.000   0.000  -0.000   0.000  -0.000   0.000   0.000   0.000
  0.000  -0.000   0.000   0.000  -0.000  -0.000   0.000  -0.000   0.000  -0.000   0.000  -0.000   0.000  -0.000  -0.000  -0.000
 -0.000  -0.000   0.000  -0.000   0.000  -0.000  -0.000   0.000   0.000  -0.000  -0.000  -0.000  -0.000  -0.000  -0.000  -0.000
 -0.000  -0.000   0.000  -0.000  -0.000   0.000   0.000  -0.000  -0.000   0.000  -0.000   0.000   0.000   0.000   0.000  -0.000
 -0.000   0.000  -0.000  -0.000   0.000   0.000  -0.000   0.000  -0.000  -0.000   0.000  -0.000  -0.000  -0.000   0.000   0.000
  0.000  -0.000   0.000  -0.000  -0.000  -0.000   0.000  -0.000   0.000   0.000  -0.000   0.000   0.000   0.000  -0.000   0.000
  0.000   0.000   0.000  -0.000   0.000   0.000  -0.000  -0.000  -0.000  -0.000   0.000   0.000   0.000   0.000   0.000  -0.000
  0.000  -0.000   0.000   0.000  -0.000  -0.000   0.000  -0.000   0.000   0.000  -0.000   0.000  -0.000   0.000   0.000   0.000
  0.000  -0.000   0.000   0.000   0.000   0.000   0.000   0.000  -0.000   0.000   0.000   0.000   0.000   0.000   0.000   0.000
  0.000  -0.000   0.000  -0.000   0.000  -0.000   0.000  -0.000  -0.000   0.000   0.000   0.000  -0.000   0.000   0.000   0.000
 -0.000  -0.000  -0.000   0.000   0.000   0.000   0.000   0.000  -0.000  -0.000   0.000  -0.000   0.000  -0.000   0.000   0.000
  0.000  -0.000   0.000  -0.000   0.000  -0.000  -0.000  -0.000   0.000  -0.000   0.000   0.000   0.000   0.000  -0.000   0.000


------------------------ aborting loop because EDIFF is reached ----------------------------------------


    CHARGE:  cpu time    0.4944: real time    0.4944
    FORLOC:  cpu time    0.0090: real time    0.0090
    FORNL :  cpu time    1.9083: real time    1.9085
    STRESS:  cpu time    5.8850: real time    5.8943
    FORCOR:  cpu time    0.1127: real time    0.1127
    FORHAR:  cpu time    0.0193: real time    0.0193
    MIXING:  cpu time    0.0032: real time    0.0032
    OFIELD:  cpu time    0.0000: real time    0.0000

 ---------------------------------------------------------------------------------------------

         DFTD3 V3.0 Rev 1        
 Edisp (eV)  -12.46363

 E6    (eV) :    -4.9948
 E8    (eV) :    -7.4688
 % E8        : 59.92
    FORVDW:  cpu time    0.0668: real time    0.0668

  FORCE on cell =-STRESS in cart. coord.  units (eV):
  Direction    XX          YY          ZZ          XY          YZ          ZX
  --------------------------------------------------------------------------------------
  Alpha Z   667.50763   667.50763   667.50763
  Ewald  131173.76497131173.76497************    -0.00000     0.00000    -0.00000
  Hartree141186.70116141186.70116************    -0.00000     0.00000    -0.00000
  E(xc)   -2089.43768 -2089.43768 -2094.67639     0.00000     0.00000    -0.00000
  Local  ************************283914.52088     0.00000     0.00000    -0.00000
  n-local  -333.27826  -302.99784  -321.73656    -1.94985     0.00000     0.00000
  augment  3310.12674  3310.12674  3319.39955     0.00000    -0.00000     0.00000
  Kinetic  4902.58885  4913.80840  4933.13917    -2.56706     0.00000     0.00000
  Fock        0.00000     0.00000     0.00000     0.00000     0.00000     0.00000
  vdW       -15.08739   -15.08739    -8.08384    -0.00000    -0.00000     0.00000
  -------------------------------------------------------------------------------------
  Total     -13.84317   -13.84317    -0.70740     0.00000     0.00000     0.00000
  in kB     -13.43022   -13.43022    -0.68630     0.00000     0.00000     0.00000
  external pressure =       -9.18 kB  Pullay stress =        0.00 kB


 VOLUME and BASIS-vectors are now :
 -----------------------------------------------------------------------------
  energy-cutoff  :      400.00
  volume of cell :     1651.44
      direct lattice vectors                 reciprocal lattice vectors
     8.642259080  0.000000000  0.000000000     0.115710486  0.000000000  0.000000000
     0.000000000  8.642259080  0.000000000     0.000000000  0.115710486  0.000000000
     0.000000000  0.000000000 22.111000000     0.000000000  0.000000000  0.045226358

  length of vectors
     8.642259080  8.642259080 22.111000000     0.115710486  0.115710486  0.045226358


 FORCES acting on ions
    electron-ion (+dipol)            ewald-force                    non-local-force                 convergence-correction
 -----------------------------------------------------------------------------------------------
   -.612E-13 0.358E-11 -.244E+04   0.147E-12 0.133E-13 0.244E+04   -.374E-21 -.231E-20 0.257E+01   0.206E-11 -.103E-12 -.239E+00
   -.111E-03 0.226E-11 -.244E+04   -.533E-10 0.151E-13 0.244E+04   -.102E-21 0.708E-21 0.257E+01   0.974E-06 0.595E-12 -.239E+00
   0.111E-03 0.246E-11 -.244E+04   0.532E-10 0.226E-13 0.244E+04   -.321E-21 0.120E-20 0.257E+01   -.974E-06 -.305E-12 -.239E+00
   -.964E-13 -.111E-03 -.244E+04   0.135E-12 -.533E-10 0.244E+04   0.204E-20 -.558E-21 0.257E+01   0.754E-12 0.974E-06 -.239E+00
   -.887E-04 -.887E-04 -.244E+04   -.532E-10 -.532E-10 0.244E+04   -.103E-20 -.611E-21 0.257E+01   -.106E-05 -.106E-05 -.239E+00
   0.887E-04 -.887E-04 -.244E+04   0.531E-10 -.532E-10 0.244E+04   0.359E-21 0.241E-20 0.257E+01   0.106E-05 -.106E-05 -.239E+00
   -.138E-12 0.111E-03 -.244E+04   0.242E-12 0.532E-10 0.244E+04   -.259E-20 0.159E-20 0.257E+01   0.138E-11 -.974E-06 -.239E+00
   -.887E-04 0.887E-04 -.244E+04   -.531E-10 0.531E-10 0.244E+04   -.246E-20 0.122E-20 0.257E+01   -.106E-05 0.106E-05 -.239E+00
   0.887E-04 0.887E-04 -.244E+04   0.532E-10 0.531E-10 0.244E+04   -.122E-20 0.171E-20 0.257E+01   0.106E-05 0.106E-05 -.239E+00
   0.785E-04 0.785E-04 -.830E+03   0.485E-10 0.485E-10 0.830E+03   -.259E-20 0.119E-20 0.587E+00   -.310E-06 -.310E-06 -.350E+00
   0.786E-12 0.960E-04 -.830E+03   -.114E-12 0.487E-10 0.830E+03   -.836E-21 0.145E-20 0.587E+00   -.254E-11 -.102E-05 -.350E+00
   -.785E-04 0.785E-04 -.830E+03   -.486E-10 0.486E-10 0.830E+03   -.261E-21 0.140E-20 0.587E+00   0.310E-06 -.310E-06 -.350E+00
   0.960E-04 0.406E-12 -.830E+03   0.487E-10 -.160E-13 0.830E+03   0.233E-20 -.264E-20 0.587E+00   -.102E-05 -.179E-12 -.350E+00
   0.690E-12 0.128E-11 -.830E+03   -.782E-13 0.622E-13 0.830E+03   0.688E-21 -.238E-20 0.587E+00   -.155E-11 0.442E-13 -.350E+00
   -.960E-04 0.274E-11 -.830E+03   -.488E-10 0.284E-13 0.830E+03   0.172E-20 -.243E-20 0.587E+00   0.102E-05 -.105E-13 -.350E+00
   0.785E-04 -.785E-04 -.830E+03   0.485E-10 -.485E-10 0.830E+03   -.253E-21 -.105E-20 0.587E+00   -.310E-06 0.310E-06 -.350E+00
   0.757E-12 -.960E-04 -.830E+03   -.853E-13 -.487E-10 0.830E+03   -.191E-20 0.278E-20 0.587E+00   -.255E-11 0.102E-05 -.350E+00
   -.785E-04 -.785E-04 -.830E+03   -.487E-10 -.485E-10 0.830E+03   0.227E-20 -.110E-20 0.587E+00   0.310E-06 0.310E-06 -.350E+00
   -.124E-12 0.715E-12 0.828E+03   0.711E-13 -.142E-13 -.827E+03   -.371E-21 0.189E-20 -.487E+00   -.324E-12 0.192E-13 -.373E+00
   -.106E-03 0.363E-12 0.828E+03   -.487E-10 0.533E-13 -.827E+03   0.148E-20 -.136E-20 -.487E+00   -.920E-07 0.266E-12 -.373E+00
   0.106E-03 0.379E-12 0.828E+03   0.486E-10 0.853E-13 -.827E+03   0.826E-21 -.217E-20 -.487E+00   0.920E-07 -.289E-13 -.373E+00
   -.905E-13 -.106E-03 0.828E+03   0.146E-12 -.486E-10 -.827E+03   -.202E-21 -.762E-22 -.487E+00   0.114E-12 -.920E-07 -.373E+00
   -.875E-04 -.875E-04 0.828E+03   -.485E-10 -.484E-10 -.827E+03   -.143E-21 0.116E-20 -.487E+00   -.871E-07 -.871E-07 -.373E+00
   0.875E-04 -.875E-04 0.828E+03   0.484E-10 -.485E-10 -.827E+03   -.581E-21 0.442E-20 -.487E+00   0.871E-07 -.871E-07 -.373E+00
   -.769E-13 0.106E-03 0.828E+03   0.171E-12 0.487E-10 -.827E+03   -.301E-20 0.168E-20 -.487E+00   -.159E-12 0.920E-07 -.373E+00
   -.875E-04 0.875E-04 0.828E+03   -.485E-10 0.484E-10 -.827E+03   0.359E-21 0.182E-20 -.487E+00   -.871E-07 0.871E-07 -.373E+00
   0.875E-04 0.875E-04 0.828E+03   0.485E-10 0.484E-10 -.827E+03   0.587E-23 0.100E-20 -.487E+00   0.871E-07 0.871E-07 -.373E+00
   0.935E-04 0.935E-04 0.244E+04   0.534E-10 0.534E-10 -.244E+04   -.428E-21 -.308E-21 -.259E+01   -.106E-06 -.106E-06 -.184E+00
   0.772E-12 0.112E-03 0.244E+04   -.497E-13 0.534E-10 -.244E+04   0.386E-21 -.312E-21 -.259E+01   0.997E-12 -.950E-07 -.184E+00
   -.935E-04 0.935E-04 0.244E+04   -.535E-10 0.534E-10 -.244E+04   -.418E-21 -.270E-21 -.259E+01   0.106E-06 -.106E-06 -.184E+00
   0.112E-03 -.278E-11 0.244E+04   0.535E-10 0.000E+00 -.244E+04   -.146E-21 -.417E-22 -.259E+01   -.950E-07 -.125E-12 -.184E+00
   0.819E-12 0.438E-11 0.244E+04   -.711E-14 0.568E-13 -.244E+04   -.241E-21 -.475E-22 -.259E+01   -.168E-12 -.550E-12 -.184E+00
   -.112E-03 0.337E-11 0.244E+04   -.535E-10 0.000E+00 -.244E+04   -.176E-21 -.425E-21 -.259E+01   0.950E-07 -.141E-11 -.184E+00
   0.935E-04 -.935E-04 0.244E+04   0.534E-10 -.534E-10 -.244E+04   -.288E-22 0.431E-21 -.259E+01   -.106E-06 0.106E-06 -.184E+00
   0.752E-12 -.112E-03 0.244E+04   0.284E-13 -.535E-10 -.244E+04   -.173E-21 0.941E-21 -.259E+01   0.153E-13 0.950E-07 -.184E+00
   -.935E-04 -.935E-04 0.244E+04   -.535E-10 -.534E-10 -.244E+04   0.350E-21 0.379E-21 -.259E+01   0.106E-06 0.106E-06 -.184E+00
 -----------------------------------------------------------------------------------------------
   0.209E-10 0.550E-10 0.962E+01   -.162E-12 -.745E-13 0.182E-11   -.704E-20 0.113E-19 0.678E+00   0.115E-11 0.265E-11 -.103E+02
 
 
 POSITION                                       TOTAL-FORCE (eV/Angst)
 -----------------------------------------------------------------------------------
      0.00000     -0.00000      6.16250         0.000000     -0.000000      0.005563
      2.88075      0.00000      6.16250        -0.000000     -0.000000      0.005563
      5.76151      0.00000      6.16250        -0.000000     -0.000000      0.005563
      0.00000      2.88075      6.16250         0.000000     -0.000000      0.005563
      2.88075      2.88075      6.16250         0.000000      0.000000      0.005563
      5.76151      2.88075      6.16250        -0.000000      0.000000      0.005563
     -0.00000      5.76151      6.16250        -0.000000      0.000000      0.005563
      2.88075      5.76151      6.16250         0.000000      0.000000      0.005563
      5.76151      5.76151      6.16250         0.000000      0.000000      0.005563
      1.44038      1.44038      4.10342        -0.000000      0.000000     -0.002674
      4.32113      1.44038      4.10342        -0.000000      0.000000     -0.002674
      7.20188      1.44038      4.10342         0.000000     -0.000000     -0.002674
      1.44038      4.32113      4.10342        -0.000000     -0.000000     -0.002674
      4.32113      4.32113      4.10342        -0.000000      0.000000     -0.002674
      7.20188      4.32113      4.10342        -0.000000     -0.000000     -0.002674
      1.44038      7.20188      4.10342        -0.000000     -0.000000     -0.002674
      4.32113      7.20188      4.10342        -0.000000      0.000000     -0.002674
      7.20188      7.20188      4.10342         0.000000      0.000000     -0.002674
      0.00000      0.00000      2.03700         0.000000     -0.000000      0.061430
      2.88075      0.00000      2.03700         0.000000     -0.000000      0.061430
      5.76151      0.00000      2.03700         0.000000      0.000000      0.061430
      0.00000      2.88075      2.03700        -0.000000      0.000000      0.061430
      2.88075      2.88075      2.03700        -0.000000     -0.000000      0.061430
      5.76151      2.88075      2.03700        -0.000000     -0.000000      0.061430
      0.00000      5.76151      2.03700        -0.000000     -0.000000      0.061430
      2.88075      5.76151      2.03700        -0.000000     -0.000000      0.061430
      5.76151      5.76151      2.03700        -0.000000      0.000000      0.061430
      1.44038      1.44038      0.00000         0.000000      0.000000     -0.064319
      4.32113      1.44038      0.00000        -0.000000      0.000000     -0.064319
      7.20188      1.44038      0.00000         0.000000      0.000000     -0.064319
      1.44038      4.32113      0.00000         0.000000     -0.000000     -0.064319
      4.32113      4.32113      0.00000        -0.000000     -0.000000     -0.064319
      7.20188      4.32113      0.00000         0.000000     -0.000000     -0.064319
      1.44038      7.20188      0.00000         0.000000     -0.000000     -0.064319
      4.32113      7.20188      0.00000        -0.000000     -0.000000     -0.064319
      7.20188      7.20188      0.00000         0.000000     -0.000000     -0.064319
 -----------------------------------------------------------------------------------
    total drift:                                0.000000      0.000000     -0.008345


--------------------------------------------------------------------------------------------------------



  FREE ENERGIE OF THE ION-ELECTRON SYSTEM (eV)
  ---------------------------------------------------
  free  energy   TOTEN  =      -102.54507133 eV

  energy  without entropy=     -102.50919919  energy(sigma->0) =     -102.52713526
 
 d Force = 0.1952194E-02[-0.640E-03, 0.454E-02]  d Energy = 0.2615209E-02-0.663E-03
 d Force =-0.2655901E+03[-0.266E+03,-0.265E+03]  d Ewald  =-0.2655904E+03 0.322E-03


--------------------------------------------------------------------------------------------------------


    POTLOK:  cpu time    0.1186: real time    0.1186


--------------------------------------------------------------------------------------------------------


 stress matrix after NEB project (eV)
    -13.84317      0.00000      0.00000
      0.00000    -13.84317      0.00000
      0.00000      0.00000     -0.70740
  FORCES: max atom, RMS     0.005563    0.003086
  FORCE total and by dimension    0.018519    0.005563
  Stress total and by dimension   19.589970   13.843166
 OPT: skip step - force has converged


--------------------------------------------------------------------------------------------------------


  
 reached required accuracy - stopping structural energy minimisation
     LOOP+:  cpu time   38.5964: real time   38.6328
    4ORBIT:  cpu time    0.0000: real time    0.0000

 total amount of memory used by VASP MPI-rank0    87602. kBytes
=======================================================================

   base      :      30000. kBytes
   nonlr-proj:       3491. kBytes
   fftplans  :       4587. kBytes
   grid      :      10633. kBytes
   one-center:         31. kBytes
   wavefun   :      38860. kBytes
 
  
  
 General timing and accounting informations for this job:
 ========================================================
  
                  Total CPU time used (sec):      357.083
                            User time (sec):      355.946
                          System time (sec):        1.136
                         Elapsed time (sec):      357.977
  
                   Maximum memory used (kb):      439248.
                   Average memory used (kb):           0.
  
                          Minor page faults:       102300
                          Major page faults:           16
                 Voluntary context switches:         2650
