<?xml version="1.0" encoding="ISO-8859-1"?>
<modeling>
 <generator>
  <i name="program" type="string">vasp </i>
  <i name="version" type="string">5.4.4.18Apr17-6-g9f103f2a35  </i>
  <i name="subversion" type="string">(build Sep 18 2020 13:42:41) complex            parallel </i>
  <i name="platform" type="string">Eagle </i>
  <i name="date" type="string">2021 11 03 </i>
  <i name="time" type="string">09:04:58 </i>
 </generator>
 <incar>
  <i type="string" name="SYSTEM"> CatImpurities</i>
  <i type="string" name="PREC">accurate</i>
  <i type="string" name="ALGO"> Fast</i>
  <i type="int" name="ISPIN">     2</i>
  <i type="int" name="NELM">  1000</i>
  <i type="int" name="NELMDL">    -5</i>
  <i type="int" name="IBRION">     3</i>
  <i name="EDIFFG">     -0.02000000</i>
  <i type="int" name="NSW">   500</i>
  <i type="int" name="ISYM">     2</i>
  <i name="ENCUT">    400.00000000</i>
  <i name="POTIM">      0.00000000</i>
  <v name="MAGMOM">      0.00000000      0.00000000      0.00000000      0.00000000      0.00000000      0.00000000      0.00000000      0.00000000      0.00000000      0.00000000      0.00000000      0.00000000      0.00000000      0.00000000      0.00000000      0.00000000      0.00000000      0.00000000      0.00000000      0.00000000
      0.00000000      0.00000000      0.00000000      0.00000000      0.00000000      0.00000000      0.00000000      0.00000000      0.00000000      0.00000000      0.00000000      0.00000000      0.00000000      0.00000000      0.00000000      0.00000000</v>
  <i type="string" name="LREAL"> Auto</i>
  <i type="int" name="ISMEAR">     0</i>
  <i name="SIGMA">      0.10000000</i>
  <i type="logical" name="LWAVE"> F  </i>
  <i type="logical" name="LCHARG"> F  </i>
  <v type="int" name="KPOINT_BSE">    -1     0     0     0</v>
  <i type="int" name="NELM">  1000</i>
  <i type="logical" name="LDIPOL"> T  </i>
  <i type="int" name="IDIPOL">     3</i>
 </incar>
 <structure name="primitive_cell" >
  <crystal>
   <varray name="basis" >
    <v>       2.88075303       0.00000000       0.00000000 </v>
    <v>       0.00000000       2.88075303       0.00000000 </v>
    <v>       0.00000000       0.00000000      22.11100000 </v>
   </varray>
   <i name="volume">    183.49339592 </i>
   <varray name="rec_basis" >
    <v>       0.34713146       0.00000000       0.00000000 </v>
    <v>       0.00000000       0.34713146       0.00000000 </v>
    <v>       0.00000000       0.00000000       0.04522636 </v>
   </varray>
  </crystal>
  <varray name="positions" >
   <v>       0.00000000       0.00000000       0.27637827 </v>
   <v>       0.50000000       0.50000000       0.18425218 </v>
   <v>       0.00000000       0.00000000       0.09212609 </v>
   <v>       0.50000000       0.50000000       0.00000000 </v>
  </varray>
 </structure>
 <varray name="primitive_index" >
  <v type="int" >        1 </v>
  <v type="int" >       10 </v>
  <v type="int" >       19 </v>
  <v type="int" >       28 </v>
 </varray>
 <kpoints>
  <generation param="Monkhorst-Pack">
   <v type="int" name="divisions">       6        6        1 </v>
   <v name="usershift">      0.00000000       0.00000000       0.00000000 </v>
   <v name="genvec1">      0.16666667       0.00000000       0.00000000 </v>
   <v name="genvec2">      0.00000000       0.16666667       0.00000000 </v>
   <v name="genvec3">      0.00000000       0.00000000       1.00000000 </v>
   <v name="shift">      0.50000000       0.50000000       0.00000000 </v>
  </generation>
  <varray name="kpointlist" >
   <v>       0.08333333       0.08333333       0.00000000 </v>
   <v>       0.25000000       0.08333333       0.00000000 </v>
   <v>       0.41666667       0.08333333       0.00000000 </v>
   <v>       0.25000000       0.25000000       0.00000000 </v>
   <v>       0.41666667       0.25000000       0.00000000 </v>
   <v>       0.41666667       0.41666667       0.00000000 </v>
  </varray>
  <varray name="weights" >
   <v>       0.11111111 </v>
   <v>       0.22222222 </v>
   <v>       0.22222222 </v>
   <v>       0.11111111 </v>
   <v>       0.22222222 </v>
   <v>       0.11111111 </v>
  </varray>
 </kpoints>
 <parameters>
  <separator name="general" >
   <i type="string" name="SYSTEM">CatImpurities</i>
   <i type="logical" name="LCOMPAT"> F  </i>
  </separator>
  <separator name="electronic" >
   <i type="string" name="PREC">accura</i>
   <i name="ENMAX">    400.00000000</i>
   <i name="ENAUG">    412.49600000</i>
   <i name="EDIFF">      0.00010000</i>
   <i type="int" name="IALGO">    68</i>
   <i type="int" name="IWAVPR">    11</i>
   <i type="int" name="NBANDS">   237</i>
   <i name="NELECT">    396.00000000</i>
   <i type="int" name="TURBO">     0</i>
   <i type="int" name="IRESTART">     0</i>
   <i type="int" name="NREBOOT">     0</i>
   <i type="int" name="NMIN">     0</i>
   <i name="EREF">      0.00000000</i>
   <separator name="electronic smearing" >
    <i type="int" name="ISMEAR">     0</i>
    <i name="SIGMA">      0.10000000</i>
    <i name="KSPACING">      0.50000000</i>
    <i type="logical" name="KGAMMA"> T  </i>
   </separator>
   <separator name="electronic projectors" >
    <i type="logical" name="LREAL"> T  </i>
    <v name="ROPT">     -0.00025000</v>
    <i type="int" name="LMAXPAW">  -100</i>
    <i type="int" name="LMAXMIX">     2</i>
    <i type="logical" name="NLSPLINE"> F  </i>
   </separator>
   <separator name="electronic startup" >
    <i type="int" name="ISTART">     0</i>
    <i type="int" name="ICHARG">     2</i>
    <i type="int" name="INIWAV">     1</i>
   </separator>
   <separator name="electronic spin" >
    <i type="int" name="ISPIN">     2</i>
    <i type="logical" name="LNONCOLLINEAR"> F  </i>
    <v name="MAGMOM">      0.00000000      0.00000000      0.00000000      0.00000000      0.00000000      0.00000000      0.00000000      0.00000000      0.00000000      0.00000000      0.00000000      0.00000000      0.00000000      0.00000000      0.00000000      0.00000000      0.00000000      0.00000000      0.00000000      0.00000000
      0.00000000      0.00000000      0.00000000      0.00000000      0.00000000      0.00000000      0.00000000      0.00000000      0.00000000      0.00000000      0.00000000      0.00000000      0.00000000      0.00000000      0.00000000      0.00000000</v>
    <i name="NUPDOWN">     -1.00000000</i>
    <i type="logical" name="LSORBIT"> F  </i>
    <v name="SAXIS">      0.00000000      0.00000000      1.00000000</v>
    <i type="logical" name="LSPIRAL"> F  </i>
    <v name="QSPIRAL">      0.00000000      0.00000000      0.00000000</v>
    <i type="logical" name="LZEROZ"> F  </i>
   </separator>
   <separator name="electronic exchange-correlation" >
    <i type="logical" name="LASPH"> F  </i>
    <i type="logical" name="LMETAGGA"> F  </i>
   </separator>
   <separator name="electronic convergence" >
    <i type="int" name="NELM">  1000</i>
    <i type="int" name="NELMDL">    -5</i>
    <i type="int" name="NELMIN">     2</i>
    <i name="ENINI">    400.00000000</i>
    <separator name="electronic convergence detail" >
     <i type="logical" name="LDIAG"> T  </i>
     <i type="logical" name="LSUBROT"> F  </i>
     <i name="WEIMIN">      0.00100000</i>
     <i name="EBREAK">      0.00000011</i>
     <i name="DEPER">      0.30000000</i>
     <i type="int" name="NRMM">     4</i>
     <i name="TIME">      0.40000000</i>
    </separator>
   </separator>
   <separator name="electronic mixer" >
    <i name="AMIX">      0.40000000</i>
    <i name="BMIX">      1.00000000</i>
    <i name="AMIN">      0.10000000</i>
    <i name="AMIX_MAG">      1.60000000</i>
    <i name="BMIX_MAG">      1.00000000</i>
    <separator name="electronic mixer details" >
     <i type="int" name="IMIX">     4</i>
     <i type="logical" name="MIXFIRST"> F  </i>
     <i type="int" name="MAXMIX">   -45</i>
     <i name="WC">    100.00000000</i>
     <i type="int" name="INIMIX">     1</i>
     <i type="int" name="MIXPRE">     1</i>
     <i type="int" name="MREMOVE">     5</i>
    </separator>
   </separator>
   <separator name="electronic dipolcorrection" >
    <i type="logical" name="LDIPOL"> T  </i>
    <i type="logical" name="LMONO"> F  </i>
    <i type="int" name="IDIPOL">     3</i>
    <i name="EPSILON">      1.00000000</i>
    <v name="DIPOL">   -100.00000000   -100.00000000   -100.00000000</v>
    <i name="EFIELD">      0.00000000</i>
   </separator>
  </separator>
  <separator name="grids" >
   <i type="int" name="NGX">    56</i>
   <i type="int" name="NGY">    56</i>
   <i type="int" name="NGZ">   144</i>
   <i type="int" name="NGXF">   112</i>
   <i type="int" name="NGYF">   112</i>
   <i type="int" name="NGZF">   288</i>
   <i type="logical" name="ADDGRID"> F  </i>
  </separator>
  <separator name="ionic" >
   <i type="int" name="NSW">   500</i>
   <i type="int" name="IBRION">     3</i>
   <i type="int" name="MDALGO">     0</i>
   <i type="int" name="ISIF">     2</i>
   <i name="PSTRESS">      0.00000000</i>
   <i name="EDIFFG">     -0.02000000</i>
   <i type="int" name="NFREE">     0</i>
   <i name="POTIM">      0.00000000</i>
   <i name="SMASS">     -3.00000000</i>
   <i name="SCALEE">      1.00000000</i>
  </separator>
  <separator name="ionic md" >
   <i name="TEBEG">      0.00010000</i>
   <i name="TEEND">      0.00010000</i>
   <i type="int" name="NBLOCK">     1</i>
   <i type="int" name="KBLOCK">   500</i>
   <i type="int" name="NPACO">   256</i>
   <i name="APACO">     16.00000000</i>
  </separator>
  <separator name="symmetry" >
   <i type="int" name="ISYM">     2</i>
   <i name="SYMPREC">      0.00001000</i>
  </separator>
  <separator name="dos" >
   <i type="int" name="LORBIT">     0</i>
   <v name="RWIGS">     -1.00000000</v>
   <i type="int" name="NEDOS">   301</i>
   <i name="EMIN">     10.00000000</i>
   <i name="EMAX">    -10.00000000</i>
   <i name="EFERMI">      0.00000000</i>
  </separator>
  <separator name="writing" >
   <i type="int" name="NWRITE">     2</i>
   <i type="logical" name="LWAVE"> F  </i>
   <i type="logical" name="LDOWNSAMPLE"> F  </i>
   <i type="logical" name="LCHARG"> F  </i>
   <i type="logical" name="LPARD"> F  </i>
   <i type="logical" name="LVTOT"> F  </i>
   <i type="logical" name="LVHAR"> F  </i>
   <i type="logical" name="LELF"> F  </i>
   <i type="logical" name="LOPTICS"> F  </i>
   <v name="STM">      0.00000000      0.00000000      0.00000000      0.00000000      0.00000000      0.00000000      0.00000000</v>
  </separator>
  <separator name="performance" >
   <i type="int" name="NPAR">     1</i>
   <i type="int" name="NSIM">     4</i>
   <i type="int" name="NBLK">    -1</i>
   <i type="logical" name="LPLANE"> T  </i>
   <i type="logical" name="LSCALAPACK"> T  </i>
   <i type="logical" name="LSCAAWARE"> F  </i>
   <i type="logical" name="LSCALU"> F  </i>
   <i type="logical" name="LASYNC"> F  </i>
   <i type="logical" name="LORBITALREAL"> F  </i>
  </separator>
  <separator name="miscellaneous" >
   <i type="int" name="IDIOT">     3</i>
   <i type="int" name="ISPECIAL">     0</i>
   <i type="logical" name="LMUSIC"> F  </i>
   <v name="POMASS">    107.86800000</v>
   <v name="DARWINR">      0.00000000</v>
   <v name="DARWINV">      1.00000000</v>
   <i type="logical" name="LCORR"> T  </i>
  </separator>
  <i type="logical" name="GGA_COMPAT"> T  </i>
  <i type="logical" name="LBERRY"> F  </i>
  <i type="int" name="ICORELEVEL">     0</i>
  <i type="logical" name="LDAU"> F  </i>
  <i type="int" name="I_CONSTRAINED_M">     0</i>
  <separator name="electronic exchange-correlation" >
   <i type="string" name="GGA">--</i>
   <i type="int" name="VOSKOWN">     0</i>
   <i type="logical" name="LHFCALC"> F  </i>
   <i type="string" name="PRECFOCK"></i>
   <i type="logical" name="LSYMGRAD"> F  </i>
   <i type="logical" name="LHFONE"> F  </i>
   <i type="logical" name="LRHFCALC"> F  </i>
   <i type="logical" name="LTHOMAS"> F  </i>
   <i type="logical" name="LMODELHF"> F  </i>
   <i name="ENCUT4O">     -1.00000000</i>
   <i type="int" name="EXXOEP">     0</i>
   <i type="int" name="FOURORBIT">     0</i>
   <i name="AEXX">      0.00000000</i>
   <i name="HFALPHA">      0.00000000</i>
   <i name="MCALPHA">      0.00000000</i>
   <i name="ALDAX">      1.00000000</i>
   <i name="AGGAX">      1.00000000</i>
   <i name="ALDAC">      1.00000000</i>
   <i name="AGGAC">      1.00000000</i>
   <i type="int" name="NKREDX">     1</i>
   <i type="int" name="NKREDY">     1</i>
   <i type="int" name="NKREDZ">     1</i>
   <i type="logical" name="SHIFTRED"> F  </i>
   <i type="logical" name="ODDONLY"> F  </i>
   <i type="logical" name="EVENONLY"> F  </i>
   <i type="int" name="LMAXFOCK">     0</i>
   <i type="int" name="NMAXFOCKAE">     0</i>
   <i type="logical" name="LFOCKAEDFT"> F  </i>
   <i name="HFSCREEN">      0.00000000</i>
   <i name="HFSCREENC">      0.00000000</i>
   <i type="int" name="NBANDSGWLOW">     0</i>
  </separator>
  <separator name="vdW DFT" >
   <i type="logical" name="LUSE_VDW"> F  </i>
   <i name="Zab_VDW">     -0.84910000</i>
   <i name="PARAM1">      0.12340000</i>
   <i name="PARAM2">      1.00000000</i>
   <i name="PARAM3">      0.00000000</i>
  </separator>
  <separator name="model GW" >
   <i type="int" name="MODEL_GW">     0</i>
   <i name="MODEL_EPS0">     27.52400939</i>
   <i name="MODEL_ALPHA">      1.00000000</i>
  </separator>
  <separator name="linear response parameters" >
   <i type="logical" name="LEPSILON"> F  </i>
   <i type="logical" name="LRPA"> F  </i>
   <i type="logical" name="LNABLA"> F  </i>
   <i type="logical" name="LVEL"> F  </i>
   <i type="int" name="KINTER">     0</i>
   <i name="CSHIFT">      0.10000000</i>
   <i name="OMEGAMAX">     -1.00000000</i>
   <i name="DEG_THRESHOLD">      0.00200000</i>
   <i name="RTIME">     -0.10000000</i>
   <i name="WPLASMAI">      0.00000000</i>
   <v name="DFIELD">      0.00000000      0.00000000      0.00000000</v>
   <v name="WPLASMA">      0.00000000      0.00000000      0.00000000      0.00000000      0.00000000      0.00000000      0.00000000      0.00000000      0.00000000</v>
  </separator>
  <separator name="orbital magnetization" >
   <i type="logical" name="NUCIND"> F  </i>
   <v name="MAGPOS">      0.00000000      0.00000000      0.00000000</v>
   <i type="logical" name="LNICSALL"> T  </i>
   <i type="logical" name="ORBITALMAG"> F  </i>
   <i type="logical" name="LMAGBLOCH"> F  </i>
   <i type="logical" name="LCHIMAG"> F  </i>
   <i type="logical" name="LGAUGE"> T  </i>
   <i type="int" name="MAGATOM">     0</i>
   <v name="MAGDIPOL">      0.00000000      0.00000000      0.00000000</v>
   <v name="AVECCONST">      0.00000000      0.00000000      0.00000000</v>
  </separator>
  <separator name="response functions" >
   <i type="logical" name="LADDER"> F  </i>
   <i type="logical" name="LRPAFORCE"> F  </i>
   <i type="logical" name="LFXC"> F  </i>
   <i type="logical" name="LHARTREE"> T  </i>
   <i type="int" name="IBSE">     0</i>
   <v type="int" name="KPOINT">    -1     0     0     0</v>
   <i type="logical" name="LTCTE"> F  </i>
   <i type="logical" name="LTETE"> F  </i>
   <i type="logical" name="LTRIPLET"> F  </i>
   <i type="logical" name="LFXCEPS"> F  </i>
   <i type="logical" name="LFXHEG"> F  </i>
   <i type="int" name="NATURALO">     2</i>
   <i type="logical" name="L2ORDER"> F  </i>
   <i type="logical" name="LMP2LT"> F  </i>
   <i type="logical" name="LUSEW"> F  </i>
   <i name="ENCUTGW">     -2.00000000</i>
   <i name="ENCUTGWSOFT">     -2.00000000</i>
   <i name="ENCUTLF">     -1.00000000</i>
   <i type="int" name="LMAXMP2">    -1</i>
   <i name="SCISSOR">      0.00000000</i>
   <i type="int" name="NOMEGA">     0</i>
   <i type="int" name="NOMEGAR">     0</i>
   <i type="int" name="NBANDSGW">    -1</i>
   <i type="int" name="NBANDSO">    -1</i>
   <i type="int" name="NBANDSV">    -1</i>
   <i type="int" name="NELM">  1000</i>
   <i type="int" name="NELMHF">     1</i>
   <i type="int" name="DIM">     3</i>
   <i type="int" name="ANTIRES">     0</i>
   <i name="OMEGAMAX">    -30.00000000</i>
   <i name="OMEGAMIN">    -30.00000000</i>
   <i name="OMEGATL">   -200.00000000</i>
   <i type="int" name="OMEGAGRID">   140</i>
   <i name="CSHIFT">     -0.10000000</i>
   <i type="logical" name="SELFENERGY"> F  </i>
   <i type="logical" name="LSPECTRAL"> F  </i>
   <i type="logical" name="LSPECTRALGW"> F  </i>
   <i type="logical" name="LSINGLES"> F  </i>
   <i type="logical" name="LFERMIGW"> F  </i>
   <i type="logical" name="ODDONLYGW"> F  </i>
   <i type="logical" name="EVENONLYGW"> F  </i>
   <i type="int" name="NKREDLFX">     1</i>
   <i type="int" name="NKREDLFY">     1</i>
   <i type="int" name="NKREDLFZ">     1</i>
   <i type="int" name="MAXMEM">  2800</i>
   <i type="int" name="TELESCOPE">     0</i>
   <i type="int" name="TAUPAR">     1</i>
   <i type="int" name="OMEGAPAR">    -1</i>
   <i name="LAMBDA">      1.00000000</i>
  </separator>
  <separator name="External order field" >
   <i name="OFIELD_KAPPA">      0.00000000</i>
   <v name="OFIELD_K">      0.00000000      0.00000000      0.00000000</v>
   <i name="OFIELD_Q6_NEAR">      0.00000000</i>
   <i name="OFIELD_Q6_FAR">      0.00000000</i>
   <i name="OFIELD_A">      0.00000000</i>
  </separator>
  <separator name="solvation model" >
   <i type="logical" name="LSOL"> F  </i>
  </separator>
 </parameters>
 <atominfo>
  <atoms>      36 </atoms>
  <types>       1 </types>
  <array name="atoms" >
   <dimension dim="1">ion</dimension>
   <field type="string">element</field>
   <field type="int">atomtype</field>
   <set>
    <rc><c>Ag</c><c>   1</c></rc>
    <rc><c>Ag</c><c>   1</c></rc>
    <rc><c>Ag</c><c>   1</c></rc>
    <rc><c>Ag</c><c>   1</c></rc>
    <rc><c>Ag</c><c>   1</c></rc>
    <rc><c>Ag</c><c>   1</c></rc>
    <rc><c>Ag</c><c>   1</c></rc>
    <rc><c>Ag</c><c>   1</c></rc>
    <rc><c>Ag</c><c>   1</c></rc>
    <rc><c>Ag</c><c>   1</c></rc>
    <rc><c>Ag</c><c>   1</c></rc>
    <rc><c>Ag</c><c>   1</c></rc>
    <rc><c>Ag</c><c>   1</c></rc>
    <rc><c>Ag</c><c>   1</c></rc>
    <rc><c>Ag</c><c>   1</c></rc>
    <rc><c>Ag</c><c>   1</c></rc>
    <rc><c>Ag</c><c>   1</c></rc>
    <rc><c>Ag</c><c>   1</c></rc>
    <rc><c>Ag</c><c>   1</c></rc>
    <rc><c>Ag</c><c>   1</c></rc>
    <rc><c>Ag</c><c>   1</c></rc>
    <rc><c>Ag</c><c>   1</c></rc>
    <rc><c>Ag</c><c>   1</c></rc>
    <rc><c>Ag</c><c>   1</c></rc>
    <rc><c>Ag</c><c>   1</c></rc>
    <rc><c>Ag</c><c>   1</c></rc>
    <rc><c>Ag</c><c>   1</c></rc>
    <rc><c>Ag</c><c>   1</c></rc>
    <rc><c>Ag</c><c>   1</c></rc>
    <rc><c>Ag</c><c>   1</c></rc>
    <rc><c>Ag</c><c>   1</c></rc>
    <rc><c>Ag</c><c>   1</c></rc>
    <rc><c>Ag</c><c>   1</c></rc>
    <rc><c>Ag</c><c>   1</c></rc>
    <rc><c>Ag</c><c>   1</c></rc>
    <rc><c>Ag</c><c>   1</c></rc>
   </set>
  </array>
  <array name="atomtypes" >
   <dimension dim="1">type</dimension>
   <field type="int">atomspertype</field>
   <field type="string">element</field>
   <field>mass</field>
   <field>valence</field>
   <field type="string">pseudopotential</field>
   <set>
    <rc><c>  36</c><c>Ag</c><c>    107.86800000</c><c>     11.00000000</c><c>  PAW_PBE Ag 02Apr2005                  </c></rc>
   </set>
  </array>
 </atominfo>
 <structure name="initialpos" >
  <crystal>
   <varray name="basis" >
    <v>       8.64225908       0.00000000       0.00000000 </v>
    <v>       0.00000000       8.64225908       0.00000000 </v>
    <v>       0.00000000       0.00000000      22.11100000 </v>
   </varray>
   <i name="volume">   1651.44056326 </i>
   <varray name="rec_basis" >
    <v>       0.11571049       0.00000000       0.00000000 </v>
    <v>       0.00000000       0.11571049       0.00000000 </v>
    <v>       0.00000000       0.00000000       0.04522636 </v>
   </varray>
  </crystal>
  <varray name="positions" >
   <v>       0.00000000       0.00000000       0.27637827 </v>
   <v>       0.33333333       0.00000000       0.27637827 </v>
   <v>       0.66666667       0.00000000       0.27637827 </v>
   <v>       0.00000000       0.33333333       0.27637827 </v>
   <v>       0.33333333       0.33333333       0.27637827 </v>
   <v>       0.66666667       0.33333333       0.27637827 </v>
   <v>       0.00000000       0.66666667       0.27637827 </v>
   <v>       0.33333333       0.66666667       0.27637827 </v>
   <v>       0.66666667       0.66666667       0.27637827 </v>
   <v>       0.16666667       0.16666667       0.18425218 </v>
   <v>       0.50000000       0.16666667       0.18425218 </v>
   <v>       0.83333333       0.16666667       0.18425218 </v>
   <v>       0.16666667       0.50000000       0.18425218 </v>
   <v>       0.50000000       0.50000000       0.18425218 </v>
   <v>       0.83333333       0.50000000       0.18425218 </v>
   <v>       0.16666667       0.83333333       0.18425218 </v>
   <v>       0.50000000       0.83333333       0.18425218 </v>
   <v>       0.83333333       0.83333333       0.18425218 </v>
   <v>       0.00000000       0.00000000       0.09212609 </v>
   <v>       0.33333333       0.00000000       0.09212609 </v>
   <v>       0.66666667       0.00000000       0.09212609 </v>
   <v>       0.00000000       0.33333333       0.09212609 </v>
   <v>       0.33333333       0.33333333       0.09212609 </v>
   <v>       0.66666667       0.33333333       0.09212609 </v>
   <v>       0.00000000       0.66666667       0.09212609 </v>
   <v>       0.33333333       0.66666667       0.09212609 </v>
   <v>       0.66666667       0.66666667       0.09212609 </v>
   <v>       0.16666667       0.16666667       0.00000000 </v>
   <v>       0.50000000       0.16666667       0.00000000 </v>
   <v>       0.83333333       0.16666667       0.00000000 </v>
   <v>       0.16666667       0.50000000       0.00000000 </v>
   <v>       0.50000000       0.50000000       0.00000000 </v>
   <v>       0.83333333       0.50000000       0.00000000 </v>
   <v>       0.16666667       0.83333333       0.00000000 </v>
   <v>       0.50000000       0.83333333       0.00000000 </v>
   <v>       0.83333333       0.83333333       0.00000000 </v>
  </varray>
  <varray name="selective"  type="logical" >
   <v type="logical" >  T  T  T </v>
   <v type="logical" >  T  T  T </v>
   <v type="logical" >  T  T  T </v>
   <v type="logical" >  T  T  T </v>
   <v type="logical" >  T  T  T </v>
   <v type="logical" >  T  T  T </v>
   <v type="logical" >  T  T  T </v>
   <v type="logical" >  T  T  T </v>
   <v type="logical" >  T  T  T </v>
   <v type="logical" >  T  T  T </v>
   <v type="logical" >  T  T  T </v>
   <v type="logical" >  T  T  T </v>
   <v type="logical" >  T  T  T </v>
   <v type="logical" >  T  T  T </v>
   <v type="logical" >  T  T  T </v>
   <v type="logical" >  T  T  T </v>
   <v type="logical" >  T  T  T </v>
   <v type="logical" >  T  T  T </v>
   <v type="logical" >  F  F  F </v>
   <v type="logical" >  F  F  F </v>
   <v type="logical" >  F  F  F </v>
   <v type="logical" >  F  F  F </v>
   <v type="logical" >  F  F  F </v>
   <v type="logical" >  F  F  F </v>
   <v type="logical" >  F  F  F </v>
   <v type="logical" >  F  F  F </v>
   <v type="logical" >  F  F  F </v>
   <v type="logical" >  F  F  F </v>
   <v type="logical" >  F  F  F </v>
   <v type="logical" >  F  F  F </v>
   <v type="logical" >  F  F  F </v>
   <v type="logical" >  F  F  F </v>
   <v type="logical" >  F  F  F </v>
   <v type="logical" >  F  F  F </v>
   <v type="logical" >  F  F  F </v>
   <v type="logical" >  F  F  F </v>
  </varray>
  <nose>
   <v>      -3.00000000       0.00000000       0.00010000       0.00010000 </v>
  </nose>
 </structure>
 <calculation>
  <scstep>
   <time name="dav">    8.58    8.58</time>
   <time name="total">    8.72    8.72</time>
   <dipole>
    <v name="dipole">      0.00000000       0.00000000      -0.00000867 </v>
    <i name="Tr[quadrupol]">  -5172.73254127 </i>
    <i name="Echarged">      0.00000000 </i>
    <i name="Edipol_quadrupol">      0.00000000 </i>
    <i name="Eion">      0.00000000 </i>
   </dipole>
   <energy>
    <i name="alphaZ">    667.50765363 </i>
    <i name="ewald"> 109601.38648694 </i>
    <i name="hartreedc">-147641.74769859 </i>
    <i name="XCdc">   -383.72579078 </i>
    <i name="pawpsdc">  36124.63737575 </i>
    <i name="pawaedc"> -34464.57387230 </i>
    <i name="eentropy">     -0.08709878 </i>
    <i name="bandstr">   1008.34185055 </i>
    <i name="atom">  37341.30342154 </i>
    <i name="e_fr_energy">   2253.04232797 </i>
    <i name="e_wo_entrp">   2253.12942674 </i>
    <i name="e_0_energy">   2253.08587735 </i>
   </energy>
  </scstep>
  <scstep>
   <time name="dav">    9.14    9.15</time>
   <time name="total">    9.15    9.15</time>
   <dipole>
    <v name="dipole">      0.00000000       0.00000000      -0.00000867 </v>
    <i name="Tr[quadrupol]">  -5172.73254127 </i>
    <i name="Echarged">      0.00000000 </i>
    <i name="Edipol_quadrupol">      0.00000000 </i>
    <i name="Eion">      0.00000000 </i>
   </dipole>
   <energy>
    <i name="e_fr_energy">      4.81639582 </i>
    <i name="e_wo_entrp">      4.86152307 </i>
    <i name="e_0_energy">      4.83895944 </i>
   </energy>
  </scstep>
  <scstep>
   <time name="dav">    9.22    9.23</time>
   <time name="total">    9.23    9.23</time>
   <dipole>
    <v name="dipole">      0.00000000       0.00000000      -0.00000867 </v>
    <i name="Tr[quadrupol]">  -5172.73254127 </i>
    <i name="Echarged">      0.00000000 </i>
    <i name="Edipol_quadrupol">      0.00000000 </i>
    <i name="Eion">      0.00000000 </i>
   </dipole>
   <energy>
    <i name="e_fr_energy">    -95.94312468 </i>
    <i name="e_wo_entrp">    -95.90008710 </i>
    <i name="e_0_energy">    -95.92160589 </i>
   </energy>
  </scstep>
  <scstep>
   <time name="dav">    9.28    9.29</time>
   <time name="total">    9.29    9.30</time>
   <dipole>
    <v name="dipole">      0.00000000       0.00000000      -0.00000867 </v>
    <i name="Tr[quadrupol]">  -5172.73254127 </i>
    <i name="Echarged">      0.00000000 </i>
    <i name="Edipol_quadrupol">      0.00000000 </i>
    <i name="Eion">      0.00000000 </i>
   </dipole>
   <energy>
    <i name="e_fr_energy">    -97.70976128 </i>
    <i name="e_wo_entrp">    -97.66622511 </i>
    <i name="e_0_energy">    -97.68799320 </i>
   </energy>
  </scstep>
  <scstep>
   <time name="dav">    9.47    9.48</time>
   <time name="total">    9.98    9.99</time>
   <dipole>
    <v name="dipole">      0.00000000       0.00000000      -0.00000867 </v>
    <i name="Tr[quadrupol]">  -5172.73254127 </i>
    <i name="Echarged">      0.00000000 </i>
    <i name="Edipol_quadrupol">      0.00000000 </i>
    <i name="Eion">      0.00000000 </i>
   </dipole>
   <energy>
    <i name="e_fr_energy">    -97.74839919 </i>
    <i name="e_wo_entrp">    -97.70484931 </i>
    <i name="e_0_energy">    -97.72662425 </i>
   </energy>
  </scstep>
  <scstep>
   <time name="diag">    1.16    1.16</time>
   <time name="diis">    5.96    5.96</time>
   <time name="orth">    0.14    0.14</time>
   <time name="total">    7.88    7.88</time>
   <dipole>
    <v name="dipole">      0.00000000       0.00000000       0.04533425 </v>
    <i name="Tr[quadrupol]">  -5174.57783341 </i>
    <i name="Echarged">      0.00000000 </i>
    <i name="Edipol_quadrupol">      0.00000000 </i>
    <i name="Eion">      0.00000000 </i>
   </dipole>
   <energy>
    <i name="e_fr_energy">    -90.40147209 </i>
    <i name="e_wo_entrp">    -90.35193922 </i>
    <i name="e_0_energy">    -90.37670566 </i>
   </energy>
  </scstep>
  <scstep>
   <time name="diag">    1.15    1.15</time>
   <time name="diis">    5.78    5.80</time>
   <time name="orth">    0.14    0.14</time>
   <time name="total">    7.70    7.72</time>
   <dipole>
    <v name="dipole">      0.00000000       0.00000000      -0.09643871 </v>
    <i name="Tr[quadrupol]">  -5176.34579248 </i>
    <i name="Echarged">      0.00000000 </i>
    <i name="Edipol_quadrupol">      0.00000000 </i>
    <i name="Eion">      0.00000000 </i>
   </dipole>
   <energy>
    <i name="e_fr_energy">    -90.07399512 </i>
    <i name="e_wo_entrp">    -90.03085862 </i>
    <i name="e_0_energy">    -90.05242687 </i>
   </energy>
  </scstep>
  <scstep>
   <time name="diag">    1.15    1.15</time>
   <time name="diis">    5.79    5.83</time>
   <time name="orth">    0.14    0.14</time>
   <time name="total">    7.70    7.74</time>
   <dipole>
    <v name="dipole">      0.00000000       0.00000000       0.33700062 </v>
    <i name="Tr[quadrupol]">  -5176.64614411 </i>
    <i name="Echarged">      0.00000000 </i>
    <i name="Edipol_quadrupol">      0.00000000 </i>
    <i name="Eion">      0.00000000 </i>
   </dipole>
   <energy>
    <i name="e_fr_energy">    -90.30589104 </i>
    <i name="e_wo_entrp">    -90.25931513 </i>
    <i name="e_0_energy">    -90.28260308 </i>
   </energy>
  </scstep>
  <scstep>
   <time name="diag">    1.15    1.15</time>
   <time name="diis">    5.79    5.80</time>
   <time name="orth">    0.14    0.14</time>
   <time name="total">    7.69    7.71</time>
   <dipole>
    <v name="dipole">      0.00000000       0.00000000      -0.05740034 </v>
    <i name="Tr[quadrupol]">  -5176.86762681 </i>
    <i name="Echarged">      0.00000000 </i>
    <i name="Edipol_quadrupol">      0.00000000 </i>
    <i name="Eion">      0.00000000 </i>
   </dipole>
   <energy>
    <i name="e_fr_energy">    -89.98717425 </i>
    <i name="e_wo_entrp">    -89.94384866 </i>
    <i name="e_0_energy">    -89.96551146 </i>
   </energy>
  </scstep>
  <scstep>
   <time name="diag">    1.16    1.16</time>
   <time name="diis">    6.00    6.02</time>
   <time name="orth">    0.14    0.14</time>
   <time name="total">    7.90    7.93</time>
   <dipole>
    <v name="dipole">      0.00000000       0.00000000       0.04748588 </v>
    <i name="Tr[quadrupol]">  -5177.05354591 </i>
    <i name="Echarged">      0.00000000 </i>
    <i name="Edipol_quadrupol">      0.00000000 </i>
    <i name="Eion">      0.00000000 </i>
   </dipole>
   <energy>
    <i name="e_fr_energy">    -89.98498328 </i>
    <i name="e_wo_entrp">    -89.94246120 </i>
    <i name="e_0_energy">    -89.96372224 </i>
   </energy>
  </scstep>
  <scstep>
   <time name="diag">    1.15    1.15</time>
   <time name="diis">    5.65    5.67</time>
   <time name="orth">    0.14    0.14</time>
   <time name="total">    7.56    7.58</time>
   <dipole>
    <v name="dipole">      0.00000000       0.00000000       0.04836267 </v>
    <i name="Tr[quadrupol]">  -5177.18204581 </i>
    <i name="Echarged">      0.00000000 </i>
    <i name="Edipol_quadrupol">      0.00000000 </i>
    <i name="Eion">      0.00000000 </i>
   </dipole>
   <energy>
    <i name="e_fr_energy">    -89.98268000 </i>
    <i name="e_wo_entrp">    -89.94031023 </i>
    <i name="e_0_energy">    -89.96149512 </i>
   </energy>
  </scstep>
  <scstep>
   <time name="diag">    1.18    1.18</time>
   <time name="diis">    5.75    5.76</time>
   <time name="orth">    0.14    0.14</time>
   <time name="total">    7.69    7.71</time>
   <dipole>
    <v name="dipole">      0.00000000       0.00000000       0.00998226 </v>
    <i name="Tr[quadrupol]">  -5177.49383011 </i>
    <i name="Echarged">      0.00000000 </i>
    <i name="Edipol_quadrupol">      0.00000000 </i>
    <i name="Eion">      0.00000000 </i>
   </dipole>
   <energy>
    <i name="e_fr_energy">    -89.98314922 </i>
    <i name="e_wo_entrp">    -89.94121386 </i>
    <i name="e_0_energy">    -89.96218154 </i>
   </energy>
  </scstep>
  <scstep>
   <time name="diag">    1.15    1.15</time>
   <time name="diis">    3.67    3.69</time>
   <time name="orth">    0.15    0.15</time>
   <time name="total">    5.67    5.69</time>
   <dipole>
    <v name="dipole">      0.00000000       0.00000000      -0.01589289 </v>
    <i name="Tr[quadrupol]">  -5177.54310720 </i>
    <i name="Echarged">      0.00000000 </i>
    <i name="Edipol_quadrupol">      0.00000000 </i>
    <i name="Eion">      0.00000000 </i>
   </dipole>
   <energy>
    <i name="e_fr_energy">    -89.98264966 </i>
    <i name="e_wo_entrp">    -89.94090789 </i>
    <i name="e_0_energy">    -89.96177878 </i>
   </energy>
  </scstep>
  <scstep>
   <time name="diag">    1.15    1.15</time>
   <time name="diis">    5.83    5.83</time>
   <time name="orth">    0.19    0.19</time>
   <time name="total">    7.78    7.79</time>
   <dipole>
    <v name="dipole">      0.00000000       0.00000000       0.00716029 </v>
    <i name="Tr[quadrupol]">  -5177.68538882 </i>
    <i name="Echarged">      0.00000000 </i>
    <i name="Edipol_quadrupol">      0.00000000 </i>
    <i name="Eion">      0.00000000 </i>
   </dipole>
   <energy>
    <i name="e_fr_energy">    -89.98310744 </i>
    <i name="e_wo_entrp">    -89.94155814 </i>
    <i name="e_0_energy">    -89.96233279 </i>
   </energy>
  </scstep>
  <scstep>
   <time name="diag">    1.15    1.15</time>
   <time name="diis">    3.51    3.51</time>
   <time name="orth">    0.14    0.14</time>
   <time name="total">    5.43    5.43</time>
   <dipole>
    <v name="dipole">      0.00000000       0.00000000       0.00227131 </v>
    <i name="Tr[quadrupol]">  -5177.74966894 </i>
    <i name="Echarged">      0.00000000 </i>
    <i name="Edipol_quadrupol">      0.00000000 </i>
    <i name="Eion">      0.00000000 </i>
   </dipole>
   <energy>
    <i name="e_fr_energy">    -89.98279252 </i>
    <i name="e_wo_entrp">    -89.94135216 </i>
    <i name="e_0_energy">    -89.96207234 </i>
   </energy>
  </scstep>
  <scstep>
   <time name="diag">    1.15    1.16</time>
   <time name="diis">    4.67    4.67</time>
   <time name="orth">    0.14    0.14</time>
   <time name="total">    6.09    6.09</time>
   <dipole>
    <v name="dipole">      0.00000000       0.00000000      -0.00539859 </v>
    <i name="Tr[quadrupol]">  -5177.78611558 </i>
    <i name="Echarged">      0.00000000 </i>
    <i name="Edipol_quadrupol">      0.00000000 </i>
    <i name="Eion">      0.00000000 </i>
   </dipole>
   <energy>
    <i name="alphaZ">    667.50400457 </i>
    <i name="ewald"> 109601.38648694 </i>
    <i name="hartreedc">-147402.97119833 </i>
    <i name="XCdc">   -398.26273735 </i>
    <i name="pawpsdc">  39739.58059972 </i>
    <i name="pawaedc"> -38163.23019263 </i>
    <i name="eentropy">     -0.04139366 </i>
    <i name="bandstr">  -1475.25175009 </i>
    <i name="atom">  37341.30342154 </i>
    <i name="e_fr_energy">    -89.98275929 </i>
    <i name="e_wo_entrp">    -89.94136563 </i>
    <i name="e_0_energy">    -89.96206246 </i>
   </energy>
  </scstep>
  <structure>
   <crystal>
    <varray name="basis" >
     <v>       8.64225908       0.00000000       0.00000000 </v>
     <v>       0.00000000       8.64225908       0.00000000 </v>
     <v>       0.00000000       0.00000000      22.11100000 </v>
    </varray>
    <i name="volume">   1651.44056326 </i>
    <varray name="rec_basis" >
     <v>       0.11571049       0.00000000       0.00000000 </v>
     <v>       0.00000000       0.11571049       0.00000000 </v>
     <v>       0.00000000       0.00000000       0.04522636 </v>
    </varray>
   </crystal>
   <varray name="positions" >
    <v>       0.00000000       0.00000000       0.27637827 </v>
    <v>       0.33333333       0.00000000       0.27637827 </v>
    <v>       0.66666667       0.00000000       0.27637827 </v>
    <v>       0.00000000       0.33333333       0.27637827 </v>
    <v>       0.33333333       0.33333333       0.27637827 </v>
    <v>       0.66666667       0.33333333       0.27637827 </v>
    <v>       0.00000000       0.66666667       0.27637827 </v>
    <v>       0.33333333       0.66666667       0.27637827 </v>
    <v>       0.66666667       0.66666667       0.27637827 </v>
    <v>       0.16666667       0.16666667       0.18425218 </v>
    <v>       0.50000000       0.16666667       0.18425218 </v>
    <v>       0.83333333       0.16666667       0.18425218 </v>
    <v>       0.16666667       0.50000000       0.18425218 </v>
    <v>       0.50000000       0.50000000       0.18425218 </v>
    <v>       0.83333333       0.50000000       0.18425218 </v>
    <v>       0.16666667       0.83333333       0.18425218 </v>
    <v>       0.50000000       0.83333333       0.18425218 </v>
    <v>       0.83333333       0.83333333       0.18425218 </v>
    <v>       0.00000000       0.00000000       0.09212609 </v>
    <v>       0.33333333       0.00000000       0.09212609 </v>
    <v>       0.66666667       0.00000000       0.09212609 </v>
    <v>       0.00000000       0.33333333       0.09212609 </v>
    <v>       0.33333333       0.33333333       0.09212609 </v>
    <v>       0.66666667       0.33333333       0.09212609 </v>
    <v>       0.00000000       0.66666667       0.09212609 </v>
    <v>       0.33333333       0.66666667       0.09212609 </v>
    <v>       0.66666667       0.66666667       0.09212609 </v>
    <v>       0.16666667       0.16666667       0.00000000 </v>
    <v>       0.50000000       0.16666667       0.00000000 </v>
    <v>       0.83333333       0.16666667       0.00000000 </v>
    <v>       0.16666667       0.50000000       0.00000000 </v>
    <v>       0.50000000       0.50000000       0.00000000 </v>
    <v>       0.83333333       0.50000000       0.00000000 </v>
    <v>       0.16666667       0.83333333       0.00000000 </v>
    <v>       0.50000000       0.83333333       0.00000000 </v>
    <v>       0.83333333       0.83333333       0.00000000 </v>
   </varray>
  </structure>
  <varray name="forces" >
   <v>       0.00000000       0.00000000       0.06846599 </v>
   <v>      -0.00000000      -0.00000000       0.06846599 </v>
   <v>      -0.00000000      -0.00000000       0.06846599 </v>
   <v>       0.00000000      -0.00000000       0.06846599 </v>
   <v>      -0.00000000      -0.00000000       0.06846599 </v>
   <v>       0.00000000       0.00000000       0.06846599 </v>
   <v>      -0.00000000      -0.00000000       0.06846599 </v>
   <v>      -0.00000000      -0.00000000       0.06846599 </v>
   <v>      -0.00000000      -0.00000000       0.06846599 </v>
   <v>       0.00000000       0.00000000       0.02934405 </v>
   <v>       0.00000000      -0.00000000       0.02934405 </v>
   <v>      -0.00000000      -0.00000000       0.02934405 </v>
   <v>      -0.00000000      -0.00000000       0.02934405 </v>
   <v>       0.00000000       0.00000000       0.02934405 </v>
   <v>       0.00000000       0.00000000       0.02934405 </v>
   <v>      -0.00000000       0.00000000       0.02934405 </v>
   <v>       0.00000000       0.00000000       0.02934405 </v>
   <v>      -0.00000000      -0.00000000       0.02934405 </v>
   <v>      -0.00000000       0.00000000      -0.03108046 </v>
   <v>       0.00000000       0.00000000      -0.03108046 </v>
   <v>       0.00000000       0.00000000      -0.03108046 </v>
   <v>      -0.00000000       0.00000000      -0.03108046 </v>
   <v>      -0.00000000      -0.00000000      -0.03108046 </v>
   <v>       0.00000000      -0.00000000      -0.03108046 </v>
   <v>      -0.00000000       0.00000000      -0.03108046 </v>
   <v>      -0.00000000       0.00000000      -0.03108046 </v>
   <v>      -0.00000000       0.00000000      -0.03108046 </v>
   <v>      -0.00000000      -0.00000000      -0.06672958 </v>
   <v>      -0.00000000      -0.00000000      -0.06672958 </v>
   <v>       0.00000000       0.00000000      -0.06672958 </v>
   <v>       0.00000000      -0.00000000      -0.06672958 </v>
   <v>       0.00000000      -0.00000000      -0.06672958 </v>
   <v>      -0.00000000       0.00000000      -0.06672958 </v>
   <v>       0.00000000       0.00000000      -0.06672958 </v>
   <v>       0.00000000       0.00000000      -0.06672958 </v>
   <v>      -0.00000000      -0.00000000      -0.06672958 </v>
  </varray>
  <varray name="stress" >
   <v>     -11.30786727       0.00000000       0.00000000 </v>
   <v>       0.00000000     -11.30786727       0.00000000 </v>
   <v>      -0.00000000       0.00000000       2.35231295 </v>
  </varray>
  <energy>
   <i name="e_fr_energy">   -102.52587279 </i>
   <i name="e_wo_entrp">   -102.50517597 </i>
   <i name="e_0_energy">     -0.04139366 </i>
  </energy>
  <time name="totalsc">  134.80  135.04</time>
 </calculation>
 <calculation>
  <scstep>
   <time name="dav">    8.78    8.78</time>
   <time name="total">    9.40    9.40</time>
   <dipole>
    <v name="dipole">      0.00000000       0.00000000       0.00019256 </v>
    <i name="Tr[quadrupol]">  -5177.84806432 </i>
    <i name="Echarged">      0.00000000 </i>
    <i name="Edipol_quadrupol">      0.00000000 </i>
    <i name="Eion">      0.00000000 </i>
   </dipole>
   <energy>
    <i name="alphaZ">    667.50775528 </i>
    <i name="ewald"> 109562.71205827 </i>
    <i name="hartreedc">-147365.86766580 </i>
    <i name="XCdc">   -398.27916273 </i>
    <i name="pawpsdc">  39741.12857985 </i>
    <i name="pawaedc"> -38164.79760141 </i>
    <i name="eentropy">     -0.04121144 </i>
    <i name="bandstr">  -1473.65221760 </i>
    <i name="atom">  37341.30342154 </i>
    <i name="e_fr_energy">    -89.98604405 </i>
    <i name="e_wo_entrp">    -89.94483260 </i>
    <i name="e_0_energy">    -89.96543832 </i>
   </energy>
  </scstep>
  <scstep>
   <time name="diag">    1.15    1.15</time>
   <time name="diis">    5.53    5.54</time>
   <time name="orth">    0.14    0.14</time>
   <time name="total">    7.43    7.45</time>
   <dipole>
    <v name="dipole">      0.00000000       0.00000000       0.00007617 </v>
    <i name="Tr[quadrupol]">  -5177.85787299 </i>
    <i name="Echarged">      0.00000000 </i>
    <i name="Edipol_quadrupol">      0.00000000 </i>
    <i name="Eion">      0.00000000 </i>
   </dipole>
   <energy>
    <i name="e_fr_energy">    -89.98618033 </i>
    <i name="e_wo_entrp">    -89.94495383 </i>
    <i name="e_0_energy">    -89.96556708 </i>
   </energy>
  </scstep>
  <scstep>
   <time name="diag">    1.15    1.15</time>
   <time name="diis">    3.34    3.34</time>
   <time name="orth">    0.14    0.14</time>
   <time name="total">    4.76    4.76</time>
   <dipole>
    <v name="dipole">      0.00000000       0.00000000      -0.00033141 </v>
    <i name="Tr[quadrupol]">  -5177.86968663 </i>
    <i name="Echarged">      0.00000000 </i>
    <i name="Edipol_quadrupol">      0.00000000 </i>
    <i name="Eion">      0.00000000 </i>
   </dipole>
   <energy>
    <i name="alphaZ">    667.50741594 </i>
    <i name="ewald"> 109562.71205827 </i>
    <i name="hartreedc">-147366.17724019 </i>
    <i name="XCdc">   -398.27660059 </i>
    <i name="pawpsdc">  39738.82193882 </i>
    <i name="pawaedc"> -38162.46370262 </i>
    <i name="eentropy">     -0.04120624 </i>
    <i name="bandstr">  -1473.37229038 </i>
    <i name="atom">  37341.30342154 </i>
    <i name="e_fr_energy">    -89.98620544 </i>
    <i name="e_wo_entrp">    -89.94499920 </i>
    <i name="e_0_energy">    -89.96560232 </i>
   </energy>
  </scstep>
  <structure>
   <crystal>
    <varray name="basis" >
     <v>       8.64225908       0.00000000       0.00000000 </v>
     <v>       0.00000000       8.64225908       0.00000000 </v>
     <v>       0.00000000       0.00000000      22.11100000 </v>
    </varray>
    <i name="volume">   1651.44056326 </i>
    <varray name="rec_basis" >
     <v>       0.11571049       0.00000000       0.00000000 </v>
     <v>       0.00000000       0.11571049       0.00000000 </v>
     <v>       0.00000000       0.00000000       0.04522636 </v>
    </varray>
   </crystal>
   <varray name="positions" >
    <v>       0.00000000       0.00000000       0.27644756 </v>
    <v>       0.33333333      -0.00000000       0.27644756 </v>
    <v>       0.66666667      -0.00000000       0.27644756 </v>
    <v>       0.00000000       0.33333333       0.27644756 </v>
    <v>       0.33333333       0.33333333       0.27644756 </v>
    <v>       0.66666667       0.33333333       0.27644756 </v>
    <v>      -0.00000000       0.66666667       0.27644756 </v>
    <v>       0.33333333       0.66666667       0.27644756 </v>
    <v>       0.66666667       0.66666667       0.27644756 </v>
    <v>       0.16666667       0.16666667       0.18428188 </v>
    <v>       0.50000000       0.16666667       0.18428188 </v>
    <v>       0.83333333       0.16666667       0.18428188 </v>
    <v>       0.16666667       0.50000000       0.18428188 </v>
    <v>       0.50000000       0.50000000       0.18428188 </v>
    <v>       0.83333333       0.50000000       0.18428188 </v>
    <v>       0.16666667       0.83333333       0.18428188 </v>
    <v>       0.50000000       0.83333333       0.18428188 </v>
    <v>       0.83333333       0.83333333       0.18428188 </v>
    <v>       0.00000000       0.00000000       0.09212609 </v>
    <v>       0.33333333       0.00000000       0.09212609 </v>
    <v>       0.66666667       0.00000000       0.09212609 </v>
    <v>       0.00000000       0.33333333       0.09212609 </v>
    <v>       0.33333333       0.33333333       0.09212609 </v>
    <v>       0.66666667       0.33333333       0.09212609 </v>
    <v>       0.00000000       0.66666667       0.09212609 </v>
    <v>       0.33333333       0.66666667       0.09212609 </v>
    <v>       0.66666667       0.66666667       0.09212609 </v>
    <v>       0.16666667       0.16666667       0.00000000 </v>
    <v>       0.50000000       0.16666667       0.00000000 </v>
    <v>       0.83333333       0.16666667       0.00000000 </v>
    <v>       0.16666667       0.50000000       0.00000000 </v>
    <v>       0.50000000       0.50000000       0.00000000 </v>
    <v>       0.83333333       0.50000000       0.00000000 </v>
    <v>       0.16666667       0.83333333       0.00000000 </v>
    <v>       0.50000000       0.83333333       0.00000000 </v>
    <v>       0.83333333       0.83333333       0.00000000 </v>
   </varray>
  </structure>
  <varray name="forces" >
   <v>       0.00000000       0.00000000       0.06168018 </v>
   <v>      -0.00000000      -0.00000000       0.06168018 </v>
   <v>       0.00000000      -0.00000000       0.06168018 </v>
   <v>       0.00000000      -0.00000000       0.06168018 </v>
   <v>      -0.00000000       0.00000000       0.06168018 </v>
   <v>      -0.00000000      -0.00000000       0.06168018 </v>
   <v>       0.00000000       0.00000000       0.06168018 </v>
   <v>       0.00000000      -0.00000000       0.06168018 </v>
   <v>      -0.00000000      -0.00000000       0.06168018 </v>
   <v>      -0.00000000      -0.00000000       0.02992658 </v>
   <v>      -0.00000000       0.00000000       0.02992658 </v>
   <v>      -0.00000000       0.00000000       0.02992658 </v>
   <v>       0.00000000      -0.00000000       0.02992658 </v>
   <v>      -0.00000000       0.00000000       0.02992658 </v>
   <v>       0.00000000      -0.00000000       0.02992658 </v>
   <v>       0.00000000      -0.00000000       0.02992658 </v>
   <v>       0.00000000      -0.00000000       0.02992658 </v>
   <v>       0.00000000      -0.00000000       0.02992658 </v>
   <v>      -0.00000000       0.00000000      -0.02607877 </v>
   <v>      -0.00000000      -0.00000000      -0.02607877 </v>
   <v>       0.00000000       0.00000000      -0.02607877 </v>
   <v>      -0.00000000      -0.00000000      -0.02607877 </v>
   <v>       0.00000000       0.00000000      -0.02607877 </v>
   <v>       0.00000000       0.00000000      -0.02607877 </v>
   <v>      -0.00000000       0.00000000      -0.02607877 </v>
   <v>       0.00000000       0.00000000      -0.02607877 </v>
   <v>       0.00000000       0.00000000      -0.02607877 </v>
   <v>       0.00000000       0.00000000      -0.06552800 </v>
   <v>       0.00000000       0.00000000      -0.06552800 </v>
   <v>       0.00000000      -0.00000000      -0.06552800 </v>
   <v>      -0.00000000       0.00000000      -0.06552800 </v>
   <v>       0.00000000       0.00000000      -0.06552800 </v>
   <v>      -0.00000000       0.00000000      -0.06552800 </v>
   <v>       0.00000000      -0.00000000      -0.06552800 </v>
   <v>      -0.00000000      -0.00000000      -0.06552800 </v>
   <v>       0.00000000       0.00000000      -0.06552800 </v>
  </varray>
  <varray name="stress" >
   <v>     -11.45666592       0.00000000       0.00000000 </v>
   <v>       0.00000000     -11.45666592       0.00000000 </v>
   <v>       0.00000000       0.00000000       2.15174471 </v>
  </varray>
  <energy>
   <i name="e_fr_energy">   -102.52712749 </i>
   <i name="e_wo_entrp">   -102.50652437 </i>
   <i name="e_0_energy">     -0.04120624 </i>
  </energy>
  <time name="totalsc">   30.87   30.91</time>
 </calculation>
 <calculation>
  <scstep>
   <time name="dav">    8.82    8.82</time>
   <time name="total">    9.43    9.44</time>
   <dipole>
    <v name="dipole">      0.00000000       0.00000000       0.00066658 </v>
    <i name="Tr[quadrupol]">  -5177.88540733 </i>
    <i name="Echarged">      0.00000000 </i>
    <i name="Edipol_quadrupol">      0.00000000 </i>
    <i name="Eion">      0.00000000 </i>
   </dipole>
   <energy>
    <i name="alphaZ">    667.50797036 </i>
    <i name="ewald"> 109343.18415534 </i>
    <i name="hartreedc">-147147.40701702 </i>
    <i name="XCdc">   -398.39214389 </i>
    <i name="pawpsdc">  39737.79255074 </i>
    <i name="pawaedc"> -38161.42322681 </i>
    <i name="eentropy">     -0.04031398 </i>
    <i name="bandstr">  -1472.52670773 </i>
    <i name="atom">  37341.30342154 </i>
    <i name="e_fr_energy">    -90.00131144 </i>
    <i name="e_wo_entrp">    -89.96099746 </i>
    <i name="e_0_energy">    -89.98115445 </i>
   </energy>
  </scstep>
  <scstep>
   <time name="diag">    1.15    1.15</time>
   <time name="diis">    5.81    5.81</time>
   <time name="orth">    0.14    0.14</time>
   <time name="total">    7.71    7.72</time>
   <dipole>
    <v name="dipole">      0.00000000       0.00000000       0.00299981 </v>
    <i name="Tr[quadrupol]">  -5177.88502229 </i>
    <i name="Echarged">      0.00000000 </i>
    <i name="Edipol_quadrupol">      0.00000000 </i>
    <i name="Eion">      0.00000000 </i>
   </dipole>
   <energy>
    <i name="e_fr_energy">    -90.00448540 </i>
    <i name="e_wo_entrp">    -89.96408299 </i>
    <i name="e_0_energy">    -89.98428420 </i>
   </energy>
  </scstep>
  <scstep>
   <time name="diag">    1.18    1.18</time>
   <time name="diis">    5.54    5.54</time>
   <time name="orth">    0.14    0.14</time>
   <time name="total">    7.47    7.48</time>
   <dipole>
    <v name="dipole">      0.00000000       0.00000000      -0.00170309 </v>
    <i name="Tr[quadrupol]">  -5177.89719611 </i>
    <i name="Echarged">      0.00000000 </i>
    <i name="Edipol_quadrupol">      0.00000000 </i>
    <i name="Eion">      0.00000000 </i>
   </dipole>
   <energy>
    <i name="e_fr_energy">    -90.00449660 </i>
    <i name="e_wo_entrp">    -89.96419465 </i>
    <i name="e_0_energy">    -89.98434563 </i>
   </energy>
  </scstep>
  <scstep>
   <time name="diag">    1.15    1.15</time>
   <time name="diis">    3.48    3.48</time>
   <time name="orth">    0.14    0.14</time>
   <time name="total">    4.90    4.90</time>
   <dipole>
    <v name="dipole">      0.00000000       0.00000000       0.00606135 </v>
    <i name="Tr[quadrupol]">  -5177.90757826 </i>
    <i name="Echarged">      0.00000000 </i>
    <i name="Edipol_quadrupol">      0.00000000 </i>
    <i name="Eion">      0.00000000 </i>
   </dipole>
   <energy>
    <i name="alphaZ">    667.55110345 </i>
    <i name="ewald"> 109343.18415534 </i>
    <i name="hartreedc">-147148.06644856 </i>
    <i name="XCdc">   -398.37704862 </i>
    <i name="pawpsdc">  39725.05093270 </i>
    <i name="pawaedc"> -38148.48850569 </i>
    <i name="eentropy">     -0.04027292 </i>
    <i name="bandstr">  -1472.12182894 </i>
    <i name="atom">  37341.30342154 </i>
    <i name="e_fr_energy">    -90.00449169 </i>
    <i name="e_wo_entrp">    -89.96421877 </i>
    <i name="e_0_energy">    -89.98435523 </i>
   </energy>
  </scstep>
  <structure>
   <crystal>
    <varray name="basis" >
     <v>       8.64225908       0.00000000       0.00000000 </v>
     <v>       0.00000000       8.64225908       0.00000000 </v>
     <v>       0.00000000       0.00000000      22.11100000 </v>
    </varray>
    <i name="volume">   1651.44056326 </i>
    <varray name="rec_basis" >
     <v>       0.11571049       0.00000000       0.00000000 </v>
     <v>       0.00000000       0.11571049       0.00000000 </v>
     <v>       0.00000000       0.00000000       0.04522636 </v>
    </varray>
   </crystal>
   <varray name="positions" >
    <v>       0.00000000       0.00000000       0.27683450 </v>
    <v>       0.33333333      -0.00000000       0.27683450 </v>
    <v>       0.66666667      -0.00000000       0.27683450 </v>
    <v>       0.00000000       0.33333333       0.27683450 </v>
    <v>       0.33333333       0.33333333       0.27683450 </v>
    <v>       0.66666667       0.33333333       0.27683450 </v>
    <v>      -0.00000000       0.66666667       0.27683450 </v>
    <v>       0.33333333       0.66666667       0.27683450 </v>
    <v>       0.66666667       0.66666667       0.27683450 </v>
    <v>       0.16666667       0.16666667       0.18446962 </v>
    <v>       0.50000000       0.16666667       0.18446962 </v>
    <v>       0.83333333       0.16666667       0.18446962 </v>
    <v>       0.16666667       0.50000000       0.18446962 </v>
    <v>       0.50000000       0.50000000       0.18446962 </v>
    <v>       0.83333333       0.50000000       0.18446962 </v>
    <v>       0.16666667       0.83333333       0.18446962 </v>
    <v>       0.50000000       0.83333333       0.18446962 </v>
    <v>       0.83333333       0.83333333       0.18446962 </v>
    <v>       0.00000000       0.00000000       0.09212609 </v>
    <v>       0.33333333       0.00000000       0.09212609 </v>
    <v>       0.66666667       0.00000000       0.09212609 </v>
    <v>       0.00000000       0.33333333       0.09212609 </v>
    <v>       0.33333333       0.33333333       0.09212609 </v>
    <v>       0.66666667       0.33333333       0.09212609 </v>
    <v>       0.00000000       0.66666667       0.09212609 </v>
    <v>       0.33333333       0.66666667       0.09212609 </v>
    <v>       0.66666667       0.66666667       0.09212609 </v>
    <v>       0.16666667       0.16666667       0.00000000 </v>
    <v>       0.50000000       0.16666667       0.00000000 </v>
    <v>       0.83333333       0.16666667       0.00000000 </v>
    <v>       0.16666667       0.50000000       0.00000000 </v>
    <v>       0.50000000       0.50000000       0.00000000 </v>
    <v>       0.83333333       0.50000000       0.00000000 </v>
    <v>       0.16666667       0.83333333       0.00000000 </v>
    <v>       0.50000000       0.83333333       0.00000000 </v>
    <v>       0.83333333       0.83333333       0.00000000 </v>
   </varray>
  </structure>
  <varray name="forces" >
   <v>       0.00000000      -0.00000000       0.04623963 </v>
   <v>      -0.00000000       0.00000000       0.04623963 </v>
   <v>       0.00000000       0.00000000       0.04623963 </v>
   <v>       0.00000000       0.00000000       0.04623963 </v>
   <v>       0.00000000       0.00000000       0.04623963 </v>
   <v>      -0.00000000      -0.00000000       0.04623963 </v>
   <v>      -0.00000000       0.00000000       0.04623963 </v>
   <v>       0.00000000       0.00000000       0.04623963 </v>
   <v>      -0.00000000      -0.00000000       0.04623963 </v>
   <v>       0.00000000      -0.00000000       0.02994542 </v>
   <v>      -0.00000000      -0.00000000       0.02994542 </v>
   <v>       0.00000000      -0.00000000       0.02994542 </v>
   <v>       0.00000000      -0.00000000       0.02994542 </v>
   <v>       0.00000000      -0.00000000       0.02994542 </v>
   <v>      -0.00000000      -0.00000000       0.02994542 </v>
   <v>       0.00000000       0.00000000       0.02994542 </v>
   <v>       0.00000000       0.00000000       0.02994542 </v>
   <v>      -0.00000000       0.00000000       0.02994542 </v>
   <v>      -0.00000000       0.00000000      -0.01044807 </v>
   <v>       0.00000000       0.00000000      -0.01044807 </v>
   <v>      -0.00000000       0.00000000      -0.01044807 </v>
   <v>      -0.00000000       0.00000000      -0.01044807 </v>
   <v>      -0.00000000      -0.00000000      -0.01044807 </v>
   <v>       0.00000000       0.00000000      -0.01044807 </v>
   <v>       0.00000000      -0.00000000      -0.01044807 </v>
   <v>      -0.00000000      -0.00000000      -0.01044807 </v>
   <v>       0.00000000      -0.00000000      -0.01044807 </v>
   <v>       0.00000000      -0.00000000      -0.06573699 </v>
   <v>       0.00000000       0.00000000      -0.06573699 </v>
   <v>      -0.00000000      -0.00000000      -0.06573699 </v>
   <v>      -0.00000000      -0.00000000      -0.06573699 </v>
   <v>      -0.00000000       0.00000000      -0.06573699 </v>
   <v>       0.00000000       0.00000000      -0.06573699 </v>
   <v>      -0.00000000       0.00000000      -0.06573699 </v>
   <v>      -0.00000000       0.00000000      -0.06573699 </v>
   <v>      -0.00000000       0.00000000      -0.06573699 </v>
  </varray>
  <varray name="stress" >
   <v>     -11.84849633       0.00000000       0.00000000 </v>
   <v>       0.00000000     -11.84849633       0.00000000 </v>
   <v>       0.00000000       0.00000000       1.60095282 </v>
  </varray>
  <energy>
   <i name="e_fr_energy">   -102.53273966 </i>
   <i name="e_wo_entrp">   -102.51260320 </i>
   <i name="e_0_energy">     -0.04027292 </i>
  </energy>
  <time name="totalsc">   38.97   39.00</time>
 </calculation>
 <calculation>
  <scstep>
   <time name="dav">    8.50    8.50</time>
   <time name="total">    9.11    9.12</time>
   <dipole>
    <v name="dipole">      0.00000000       0.00000000       0.00083627 </v>
    <i name="Tr[quadrupol]">  -5177.91557410 </i>
    <i name="Echarged">      0.00000000 </i>
    <i name="Edipol_quadrupol">      0.00000000 </i>
    <i name="Eion">      0.00000000 </i>
   </dipole>
   <energy>
    <i name="alphaZ">    667.51584513 </i>
    <i name="ewald"> 108385.15218488 </i>
    <i name="hartreedc">-146192.56969613 </i>
    <i name="XCdc">   -398.82270532 </i>
    <i name="pawpsdc">  39720.95592310 </i>
    <i name="pawaedc"> -38144.33150998 </i>
    <i name="eentropy">     -0.03702492 </i>
    <i name="bandstr">  -1469.17887941 </i>
    <i name="atom">  37341.30342154 </i>
    <i name="e_fr_energy">    -90.01244111 </i>
    <i name="e_wo_entrp">    -89.97541619 </i>
    <i name="e_0_energy">    -89.99392865 </i>
   </energy>
  </scstep>
  <scstep>
   <time name="diag">    1.18    1.18</time>
   <time name="diis">    5.80    5.80</time>
   <time name="orth">    0.14    0.14</time>
   <time name="total">    7.73    7.73</time>
   <dipole>
    <v name="dipole">      0.00000000       0.00000000       0.01696533 </v>
    <i name="Tr[quadrupol]">  -5177.91560489 </i>
    <i name="Echarged">      0.00000000 </i>
    <i name="Edipol_quadrupol">      0.00000000 </i>
    <i name="Eion">      0.00000000 </i>
   </dipole>
   <energy>
    <i name="e_fr_energy">    -90.07900289 </i>
    <i name="e_wo_entrp">    -90.04173615 </i>
    <i name="e_0_energy">    -90.06036952 </i>
   </energy>
  </scstep>
  <scstep>
   <time name="diag">    1.15    1.15</time>
   <time name="diis">    6.00    6.00</time>
   <time name="orth">    0.14    0.14</time>
   <time name="total">    7.90    7.91</time>
   <dipole>
    <v name="dipole">      0.00000000       0.00000000      -0.00739437 </v>
    <i name="Tr[quadrupol]">  -5177.92339308 </i>
    <i name="Echarged">      0.00000000 </i>
    <i name="Edipol_quadrupol">      0.00000000 </i>
    <i name="Eion">      0.00000000 </i>
   </dipole>
   <energy>
    <i name="e_fr_energy">    -90.07870695 </i>
    <i name="e_wo_entrp">    -90.04183532 </i>
    <i name="e_0_energy">    -90.06027113 </i>
   </energy>
  </scstep>
  <scstep>
   <time name="diag">    1.15    1.15</time>
   <time name="diis">    5.92    5.92</time>
   <time name="orth">    0.14    0.14</time>
   <time name="total">    7.83    7.84</time>
   <dipole>
    <v name="dipole">      0.00000000       0.00000000       0.01977620 </v>
    <i name="Tr[quadrupol]">  -5177.95789395 </i>
    <i name="Echarged">      0.00000000 </i>
    <i name="Edipol_quadrupol">      0.00000000 </i>
    <i name="Eion">      0.00000000 </i>
   </dipole>
   <energy>
    <i name="e_fr_energy">    -90.07786396 </i>
    <i name="e_wo_entrp">    -90.04112110 </i>
    <i name="e_0_energy">    -90.05949253 </i>
   </energy>
  </scstep>
  <scstep>
   <time name="diag">    1.15    1.15</time>
   <time name="diis">    5.78    5.78</time>
   <time name="orth">    0.14    0.14</time>
   <time name="total">    7.71    7.72</time>
   <dipole>
    <v name="dipole">      0.00000000       0.00000000       0.00195853 </v>
    <i name="Tr[quadrupol]">  -5177.93938058 </i>
    <i name="Echarged">      0.00000000 </i>
    <i name="Edipol_quadrupol">      0.00000000 </i>
    <i name="Eion">      0.00000000 </i>
   </dipole>
   <energy>
    <i name="e_fr_energy">    -90.07631898 </i>
    <i name="e_wo_entrp">    -90.03963228 </i>
    <i name="e_0_energy">    -90.05797563 </i>
   </energy>
  </scstep>
  <scstep>
   <time name="diag">    1.15    1.15</time>
   <time name="diis">    3.38    3.38</time>
   <time name="orth">    0.14    0.14</time>
   <time name="total">    4.80    4.81</time>
   <dipole>
    <v name="dipole">      0.00000000       0.00000000       0.00500230 </v>
    <i name="Tr[quadrupol]">  -5177.94205976 </i>
    <i name="Echarged">      0.00000000 </i>
    <i name="Edipol_quadrupol">      0.00000000 </i>
    <i name="Eion">      0.00000000 </i>
   </dipole>
   <energy>
    <i name="alphaZ">    667.67341726 </i>
    <i name="ewald"> 108385.15218488 </i>
    <i name="hartreedc">-146194.58591474 </i>
    <i name="XCdc">   -398.76403166 </i>
    <i name="pawpsdc">  39660.79758353 </i>
    <i name="pawaedc"> -38083.22994613 </i>
    <i name="eentropy">     -0.03675069 </i>
    <i name="bandstr">  -1468.38618940 </i>
    <i name="atom">  37341.30342154 </i>
    <i name="e_fr_energy">    -90.07622540 </i>
    <i name="e_wo_entrp">    -90.03947471 </i>
    <i name="e_0_energy">    -90.05785005 </i>
   </energy>
  </scstep>
  <structure>
   <crystal>
    <varray name="basis" >
     <v>       8.64225908       0.00000000       0.00000000 </v>
     <v>       0.00000000       8.64225908       0.00000000 </v>
     <v>       0.00000000       0.00000000      22.11100000 </v>
    </varray>
    <i name="volume">   1651.44056326 </i>
    <varray name="rec_basis" >
     <v>       0.11571049       0.00000000       0.00000000 </v>
     <v>       0.00000000       0.11571049       0.00000000 </v>
     <v>       0.00000000       0.00000000       0.04522636 </v>
    </varray>
   </crystal>
   <varray name="positions" >
    <v>       0.00000000      -0.00000000       0.27835901 </v>
    <v>       0.33333333       0.00000000       0.27835901 </v>
    <v>       0.66666667       0.00000000       0.27835901 </v>
    <v>       0.00000000       0.33333333       0.27835901 </v>
    <v>       0.33333333       0.33333333       0.27835901 </v>
    <v>       0.66666667       0.33333333       0.27835901 </v>
    <v>      -0.00000000       0.66666667       0.27835901 </v>
    <v>       0.33333333       0.66666667       0.27835901 </v>
    <v>       0.66666667       0.66666667       0.27835901 </v>
    <v>       0.16666667       0.16666667       0.18578373 </v>
    <v>       0.50000000       0.16666667       0.18578373 </v>
    <v>       0.83333333       0.16666667       0.18578373 </v>
    <v>       0.16666667       0.50000000       0.18578373 </v>
    <v>       0.50000000       0.50000000       0.18578373 </v>
    <v>       0.83333333       0.50000000       0.18578373 </v>
    <v>       0.16666667       0.83333333       0.18578373 </v>
    <v>       0.50000000       0.83333333       0.18578373 </v>
    <v>       0.83333333       0.83333333       0.18578373 </v>
    <v>       0.00000000       0.00000000       0.09212609 </v>
    <v>       0.33333333       0.00000000       0.09212609 </v>
    <v>       0.66666667       0.00000000       0.09212609 </v>
    <v>       0.00000000       0.33333333       0.09212609 </v>
    <v>       0.33333333       0.33333333       0.09212609 </v>
    <v>       0.66666667       0.33333333       0.09212609 </v>
    <v>       0.00000000       0.66666667       0.09212609 </v>
    <v>       0.33333333       0.66666667       0.09212609 </v>
    <v>       0.66666667       0.66666667       0.09212609 </v>
    <v>       0.16666667       0.16666667       0.00000000 </v>
    <v>       0.50000000       0.16666667       0.00000000 </v>
    <v>       0.83333333       0.16666667       0.00000000 </v>
    <v>       0.16666667       0.50000000       0.00000000 </v>
    <v>       0.50000000       0.50000000       0.00000000 </v>
    <v>       0.83333333       0.50000000       0.00000000 </v>
    <v>       0.16666667       0.83333333       0.00000000 </v>
    <v>       0.50000000       0.83333333       0.00000000 </v>
    <v>       0.83333333       0.83333333       0.00000000 </v>
   </varray>
  </structure>
  <varray name="forces" >
   <v>      -0.00000000       0.00000000       0.03461102 </v>
   <v>      -0.00000000       0.00000000       0.03461102 </v>
   <v>      -0.00000000       0.00000000       0.03461102 </v>
   <v>       0.00000000       0.00000000       0.03461102 </v>
   <v>       0.00000000      -0.00000000       0.03461102 </v>
   <v>      -0.00000000       0.00000000       0.03461102 </v>
   <v>      -0.00000000       0.00000000       0.03461102 </v>
   <v>      -0.00000000       0.00000000       0.03461102 </v>
   <v>       0.00000000       0.00000000       0.03461102 </v>
   <v>      -0.00000000      -0.00000000      -0.04575703 </v>
   <v>       0.00000000       0.00000000      -0.04575703 </v>
   <v>       0.00000000       0.00000000      -0.04575703 </v>
   <v>      -0.00000000      -0.00000000      -0.04575703 </v>
   <v>      -0.00000000       0.00000000      -0.04575703 </v>
   <v>      -0.00000000       0.00000000      -0.04575703 </v>
   <v>      -0.00000000       0.00000000      -0.04575703 </v>
   <v>       0.00000000      -0.00000000      -0.04575703 </v>
   <v>       0.00000000       0.00000000      -0.04575703 </v>
   <v>      -0.00000000       0.00000000       0.07493091 </v>
   <v>      -0.00000000       0.00000000       0.07493091 </v>
   <v>       0.00000000       0.00000000       0.07493091 </v>
   <v>       0.00000000       0.00000000       0.07493091 </v>
   <v>      -0.00000000      -0.00000000       0.07493091 </v>
   <v>      -0.00000000       0.00000000       0.07493091 </v>
   <v>      -0.00000000       0.00000000       0.07493091 </v>
   <v>       0.00000000      -0.00000000       0.07493091 </v>
   <v>       0.00000000      -0.00000000       0.07493091 </v>
   <v>       0.00000000      -0.00000000      -0.06378490 </v>
   <v>      -0.00000000      -0.00000000      -0.06378490 </v>
   <v>       0.00000000      -0.00000000      -0.06378490 </v>
   <v>       0.00000000      -0.00000000      -0.06378490 </v>
   <v>       0.00000000      -0.00000000      -0.06378490 </v>
   <v>       0.00000000      -0.00000000      -0.06378490 </v>
   <v>       0.00000000       0.00000000      -0.06378490 </v>
   <v>       0.00000000       0.00000000      -0.06378490 </v>
   <v>      -0.00000000      -0.00000000      -0.06378490 </v>
  </varray>
  <varray name="stress" >
   <v>     -13.12762150       0.00000000      -0.00000000 </v>
   <v>       0.00000000     -13.12762150       0.00000000 </v>
   <v>       0.00000000       0.00000000      -0.36080942 </v>
  </varray>
  <energy>
   <i name="e_fr_energy">   -102.54300697 </i>
   <i name="e_wo_entrp">   -102.52463163 </i>
   <i name="e_0_energy">     -0.03675069 </i>
  </energy>
  <time name="totalsc">   54.37   54.41</time>
 </calculation>
 <calculation>
  <scstep>
   <time name="dav">    8.66    8.68</time>
   <time name="total">    9.27    9.29</time>
   <dipole>
    <v name="dipole">      0.00000000       0.00000000       0.00450787 </v>
    <i name="Tr[quadrupol]">  -5177.94382231 </i>
    <i name="Echarged">      0.00000000 </i>
    <i name="Edipol_quadrupol">      0.00000000 </i>
    <i name="Eion">      0.00000000 </i>
   </dipole>
   <energy>
    <i name="alphaZ">    667.67132152 </i>
    <i name="ewald"> 107983.87493894 </i>
    <i name="hartreedc">-145794.65735288 </i>
    <i name="XCdc">   -399.02066012 </i>
    <i name="pawpsdc">  39660.56683431 </i>
    <i name="pawaedc"> -38082.99535085 </i>
    <i name="eentropy">     -0.03438584 </i>
    <i name="bandstr">  -1466.78282588 </i>
    <i name="atom">  37341.30342154 </i>
    <i name="e_fr_energy">    -90.07405925 </i>
    <i name="e_wo_entrp">    -90.03967341 </i>
    <i name="e_0_energy">    -90.05686633 </i>
   </energy>
  </scstep>
  <scstep>
   <time name="diag">    1.15    1.15</time>
   <time name="diis">    5.84    5.84</time>
   <time name="orth">    0.14    0.14</time>
   <time name="total">    7.74    7.74</time>
   <dipole>
    <v name="dipole">      0.00000000       0.00000000       0.01935094 </v>
    <i name="Tr[quadrupol]">  -5177.95330953 </i>
    <i name="Echarged">      0.00000000 </i>
    <i name="Edipol_quadrupol">      0.00000000 </i>
    <i name="Eion">      0.00000000 </i>
   </dipole>
   <energy>
    <i name="e_fr_energy">    -90.09020402 </i>
    <i name="e_wo_entrp">    -90.05554585 </i>
    <i name="e_0_energy">    -90.07287493 </i>
   </energy>
  </scstep>
  <scstep>
   <time name="diag">    1.15    1.15</time>
   <time name="diis">    5.83    5.83</time>
   <time name="orth">    0.14    0.14</time>
   <time name="total">    7.73    7.73</time>
   <dipole>
    <v name="dipole">      0.00000000       0.00000000      -0.00052365 </v>
    <i name="Tr[quadrupol]">  -5177.92951263 </i>
    <i name="Echarged">      0.00000000 </i>
    <i name="Edipol_quadrupol">      0.00000000 </i>
    <i name="Eion">      0.00000000 </i>
   </dipole>
   <energy>
    <i name="e_fr_energy">    -90.09035587 </i>
    <i name="e_wo_entrp">    -90.05590642 </i>
    <i name="e_0_energy">    -90.07313114 </i>
   </energy>
  </scstep>
  <scstep>
   <time name="diag">    1.15    1.15</time>
   <time name="diis">    5.83    5.83</time>
   <time name="orth">    0.14    0.14</time>
   <time name="total">    7.74    7.74</time>
   <dipole>
    <v name="dipole">      0.00000000       0.00000000       0.01874297 </v>
    <i name="Tr[quadrupol]">  -5177.97017808 </i>
    <i name="Echarged">      0.00000000 </i>
    <i name="Edipol_quadrupol">      0.00000000 </i>
    <i name="Eion">      0.00000000 </i>
   </dipole>
   <energy>
    <i name="e_fr_energy">    -90.09016000 </i>
    <i name="e_wo_entrp">    -90.05575144 </i>
    <i name="e_0_energy">    -90.07295572 </i>
   </energy>
  </scstep>
  <scstep>
   <time name="diag">    1.15    1.15</time>
   <time name="diis">    5.42    5.42</time>
   <time name="orth">    0.14    0.14</time>
   <time name="total">    7.33    7.33</time>
   <dipole>
    <v name="dipole">      0.00000000       0.00000000       0.00778684 </v>
    <i name="Tr[quadrupol]">  -5177.95352485 </i>
    <i name="Echarged">      0.00000000 </i>
    <i name="Edipol_quadrupol">      0.00000000 </i>
    <i name="Eion">      0.00000000 </i>
   </dipole>
   <energy>
    <i name="e_fr_energy">    -90.08977083 </i>
    <i name="e_wo_entrp">    -90.05536776 </i>
    <i name="e_0_energy">    -90.07256930 </i>
   </energy>
  </scstep>
  <scstep>
   <time name="diag">    1.15    1.15</time>
   <time name="diis">    3.35    3.35</time>
   <time name="orth">    0.14    0.14</time>
   <time name="total">    4.77    4.77</time>
   <dipole>
    <v name="dipole">      0.00000000       0.00000000       0.00821518 </v>
    <i name="Tr[quadrupol]">  -5177.95481626 </i>
    <i name="Echarged">      0.00000000 </i>
    <i name="Edipol_quadrupol">      0.00000000 </i>
    <i name="Eion">      0.00000000 </i>
   </dipole>
   <energy>
    <i name="alphaZ">    667.83330852 </i>
    <i name="ewald"> 107983.87493894 </i>
    <i name="hartreedc">-145795.55184011 </i>
    <i name="XCdc">   -398.98141538 </i>
    <i name="pawpsdc">  39625.35173731 </i>
    <i name="pawaedc"> -38047.22526732 </i>
    <i name="eentropy">     -0.03443205 </i>
    <i name="bandstr">  -1466.66020387 </i>
    <i name="atom">  37341.30342154 </i>
    <i name="e_fr_energy">    -90.08975241 </i>
    <i name="e_wo_entrp">    -90.05532036 </i>
    <i name="e_0_energy">    -90.07253639 </i>
   </energy>
  </scstep>
  <structure>
   <crystal>
    <varray name="basis" >
     <v>       8.64225908       0.00000000       0.00000000 </v>
     <v>       0.00000000       8.64225908       0.00000000 </v>
     <v>       0.00000000       0.00000000      22.11100000 </v>
    </varray>
    <i name="volume">   1651.44056326 </i>
    <varray name="rec_basis" >
     <v>       0.11571049       0.00000000       0.00000000 </v>
     <v>       0.00000000       0.11571049       0.00000000 </v>
     <v>       0.00000000       0.00000000       0.04522636 </v>
    </varray>
   </crystal>
   <varray name="positions" >
    <v>       0.00000000      -0.00000000       0.27926802 </v>
    <v>       0.33333333       0.00000000       0.27926802 </v>
    <v>       0.66666667       0.00000000       0.27926802 </v>
    <v>       0.00000000       0.33333333       0.27926802 </v>
    <v>       0.33333333       0.33333333       0.27926802 </v>
    <v>       0.66666667       0.33333333       0.27926802 </v>
    <v>      -0.00000000       0.66666667       0.27926802 </v>
    <v>       0.33333333       0.66666667       0.27926802 </v>
    <v>       0.66666667       0.66666667       0.27926802 </v>
    <v>       0.16666667       0.16666667       0.18554681 </v>
    <v>       0.50000000       0.16666667       0.18554681 </v>
    <v>       0.83333333       0.16666667       0.18554681 </v>
    <v>       0.16666667       0.50000000       0.18554681 </v>
    <v>       0.50000000       0.50000000       0.18554681 </v>
    <v>       0.83333333       0.50000000       0.18554681 </v>
    <v>       0.16666667       0.83333333       0.18554681 </v>
    <v>       0.50000000       0.83333333       0.18554681 </v>
    <v>       0.83333333       0.83333333       0.18554681 </v>
    <v>       0.00000000       0.00000000       0.09212609 </v>
    <v>       0.33333333       0.00000000       0.09212609 </v>
    <v>       0.66666667       0.00000000       0.09212609 </v>
    <v>       0.00000000       0.33333333       0.09212609 </v>
    <v>       0.33333333       0.33333333       0.09212609 </v>
    <v>       0.66666667       0.33333333       0.09212609 </v>
    <v>       0.00000000       0.66666667       0.09212609 </v>
    <v>       0.33333333       0.66666667       0.09212609 </v>
    <v>       0.66666667       0.66666667       0.09212609 </v>
    <v>       0.16666667       0.16666667       0.00000000 </v>
    <v>       0.50000000       0.16666667       0.00000000 </v>
    <v>       0.83333333       0.16666667       0.00000000 </v>
    <v>       0.16666667       0.50000000       0.00000000 </v>
    <v>       0.50000000       0.50000000       0.00000000 </v>
    <v>       0.83333333       0.50000000       0.00000000 </v>
    <v>       0.16666667       0.83333333       0.00000000 </v>
    <v>       0.50000000       0.83333333       0.00000000 </v>
    <v>       0.83333333       0.83333333       0.00000000 </v>
   </varray>
  </structure>
  <varray name="forces" >
   <v>       0.00000000      -0.00000000      -0.03824339 </v>
   <v>       0.00000000      -0.00000000      -0.03824339 </v>
   <v>      -0.00000000       0.00000000      -0.03824339 </v>
   <v>      -0.00000000       0.00000000      -0.03824339 </v>
   <v>       0.00000000       0.00000000      -0.03824339 </v>
   <v>      -0.00000000      -0.00000000      -0.03824339 </v>
   <v>       0.00000000      -0.00000000      -0.03824339 </v>
   <v>       0.00000000      -0.00000000      -0.03824339 </v>
   <v>      -0.00000000       0.00000000      -0.03824339 </v>
   <v>      -0.00000000       0.00000000       0.03854697 </v>
   <v>      -0.00000000       0.00000000       0.03854697 </v>
   <v>       0.00000000       0.00000000       0.03854697 </v>
   <v>       0.00000000      -0.00000000       0.03854697 </v>
   <v>       0.00000000      -0.00000000       0.03854697 </v>
   <v>      -0.00000000      -0.00000000       0.03854697 </v>
   <v>      -0.00000000       0.00000000       0.03854697 </v>
   <v>       0.00000000       0.00000000       0.03854697 </v>
   <v>      -0.00000000      -0.00000000       0.03854697 </v>
   <v>      -0.00000000      -0.00000000       0.06328820 </v>
   <v>       0.00000000      -0.00000000       0.06328820 </v>
   <v>       0.00000000      -0.00000000       0.06328820 </v>
   <v>       0.00000000       0.00000000       0.06328820 </v>
   <v>       0.00000000       0.00000000       0.06328820 </v>
   <v>       0.00000000       0.00000000       0.06328820 </v>
   <v>       0.00000000      -0.00000000       0.06328820 </v>
   <v>      -0.00000000      -0.00000000       0.06328820 </v>
   <v>       0.00000000       0.00000000       0.06328820 </v>
   <v>       0.00000000       0.00000000      -0.06359177 </v>
   <v>      -0.00000000       0.00000000      -0.06359177 </v>
   <v>       0.00000000      -0.00000000      -0.06359177 </v>
   <v>      -0.00000000       0.00000000      -0.06359177 </v>
   <v>      -0.00000000      -0.00000000      -0.06359177 </v>
   <v>      -0.00000000       0.00000000      -0.06359177 </v>
   <v>       0.00000000       0.00000000      -0.06359177 </v>
   <v>       0.00000000       0.00000000      -0.06359177 </v>
   <v>      -0.00000000      -0.00000000      -0.06359177 </v>
  </varray>
  <varray name="stress" >
   <v>     -13.94981445       0.00000000       0.00000000 </v>
   <v>       0.00000000     -13.94981445       0.00000000 </v>
   <v>       0.00000000       0.00000000      -1.45798064 </v>
  </varray>
  <energy>
   <i name="e_fr_energy">   -102.54245612 </i>
   <i name="e_wo_entrp">   -102.52524010 </i>
   <i name="e_0_energy">     -0.03443205 </i>
  </energy>
  <time name="totalsc">   53.87   53.91</time>
 </calculation>
 <calculation>
  <scstep>
   <time name="dav">    8.49    8.49</time>
   <time name="total">    9.10    9.11</time>
   <dipole>
    <v name="dipole">      0.00000000       0.00000000       0.00786661 </v>
    <i name="Tr[quadrupol]">  -5177.95548878 </i>
    <i name="Echarged">      0.00000000 </i>
    <i name="Edipol_quadrupol">      0.00000000 </i>
    <i name="Eion">      0.00000000 </i>
   </dipole>
   <energy>
    <i name="alphaZ">    667.82048008 </i>
    <i name="ewald"> 108249.46536201 </i>
    <i name="hartreedc">-146060.32835699 </i>
    <i name="XCdc">   -398.81981915 </i>
    <i name="pawpsdc">  39625.70010953 </i>
    <i name="pawaedc"> -38047.57885540 </i>
    <i name="eentropy">     -0.03584497 </i>
    <i name="bandstr">  -1467.60206879 </i>
    <i name="atom">  37341.30342154 </i>
    <i name="e_fr_energy">    -90.07557214 </i>
    <i name="e_wo_entrp">    -90.03972717 </i>
    <i name="e_0_energy">    -90.05764966 </i>
   </energy>
  </scstep>
  <scstep>
   <time name="diag">    1.31    1.31</time>
   <time name="diis">    5.79    5.79</time>
   <time name="orth">    0.14    0.14</time>
   <time name="total">    7.86    7.86</time>
   <dipole>
    <v name="dipole">      0.00000000       0.00000000      -0.00054637 </v>
    <i name="Tr[quadrupol]">  -5177.95672043 </i>
    <i name="Echarged">      0.00000000 </i>
    <i name="Edipol_quadrupol">      0.00000000 </i>
    <i name="Eion">      0.00000000 </i>
   </dipole>
   <energy>
    <i name="e_fr_energy">    -90.08145017 </i>
    <i name="e_wo_entrp">    -90.04575642 </i>
    <i name="e_0_energy">    -90.06360329 </i>
   </energy>
  </scstep>
  <scstep>
   <time name="diag">    1.15    1.15</time>
[...]
       <r>     6.5918     0.0005   237.0000 </r>
       <r>     6.6421     0.0000   237.0000 </r>
       <r>     6.6923     0.0000   237.0000 </r>
       <r>     6.7425     0.0000   237.0000 </r>
       <r>     6.7927     0.0000   237.0000 </r>
       <r>     6.8429     0.0000   237.0000 </r>
       <r>     6.8931     0.0000   237.0000 </r>
       <r>     6.9434     0.0000   237.0000 </r>
       <r>     6.9936     0.0000   237.0000 </r>
       <r>     7.0438     0.0000   237.0000 </r>
       <r>     7.0940     0.0000   237.0000 </r>
       <r>     7.1442     0.0000   237.0000 </r>
       <r>     7.1944     0.0000   237.0000 </r>
       <r>     7.2447     0.0000   237.0000 </r>
       <r>     7.2949     0.0000   237.0000 </r>
      </set>
      <set comment="spin 2">
       <r>    -7.7701     0.0000     0.0000 </r>
       <r>    -7.7198     0.0000     0.0000 </r>
       <r>    -7.6696     0.0000     0.0000 </r>
       <r>    -7.6194     0.0000     0.0000 </r>
       <r>    -7.5692     0.0000     0.0000 </r>
       <r>    -7.5190     0.0000     0.0000 </r>
       <r>    -7.4688     0.0000     0.0000 </r>
       <r>    -7.4185     0.0000     0.0000 </r>
       <r>    -7.3683     0.0000     0.0000 </r>
       <r>    -7.3181     0.0000     0.0000 </r>
       <r>    -7.2679     0.0000     0.0000 </r>
       <r>    -7.2177     0.0000     0.0000 </r>
       <r>    -7.1675     0.0000     0.0000 </r>
       <r>    -7.1172     0.0000     0.0000 </r>
       <r>    -7.0670     0.0000     0.0000 </r>
       <r>    -7.0168     0.0005     0.0000 </r>
       <r>    -6.9666     0.0055     0.0003 </r>
       <r>    -6.9164     0.0369     0.0022 </r>
       <r>    -6.8662     0.1544     0.0099 </r>
       <r>    -6.8159     0.4141     0.0307 </r>
       <r>    -6.7657     0.7674     0.0692 </r>
       <r>    -6.7155     1.1207     0.1255 </r>
       <r>    -6.6653     1.4246     0.1971 </r>
       <r>    -6.6151     1.5365     0.2742 </r>
       <r>    -6.5649     1.4138     0.3452 </r>
       <r>    -6.5147     1.3303     0.4120 </r>
       <r>    -6.4644     1.4739     0.4860 </r>
       <r>    -6.4142     1.7000     0.5714 </r>
       <r>    -6.3640     1.7991     0.6617 </r>
       <r>    -6.3138     1.7483     0.7495 </r>
       <r>    -6.2636     1.5454     0.8271 </r>
       <r>    -6.2134     1.3229     0.8936 </r>
       <r>    -6.1631     1.4778     0.9678 </r>
       <r>    -6.1129     2.0045     1.0684 </r>
       <r>    -6.0627     2.3752     1.1877 </r>
       <r>    -6.0125     2.2730     1.3019 </r>
       <r>    -5.9623     1.8643     1.3955 </r>
       <r>    -5.9121     1.7515     1.4834 </r>
       <r>    -5.8618     2.6099     1.6145 </r>
       <r>    -5.8116     4.5159     1.8413 </r>
       <r>    -5.7614     7.4163     2.2137 </r>
       <r>    -5.7112    12.0915     2.8209 </r>
       <r>    -5.6610    19.1914     3.7846 </r>
       <r>    -5.6108    27.5638     5.1687 </r>
       <r>    -5.5605    34.7298     6.9128 </r>
       <r>    -5.5103    38.8286     8.8626 </r>
       <r>    -5.4601    40.5149    10.8971 </r>
       <r>    -5.4099    41.9995    13.0062 </r>
       <r>    -5.3597    43.4008    15.1856 </r>
       <r>    -5.3095    43.3699    17.3635 </r>
       <r>    -5.2592    42.7669    19.5111 </r>
       <r>    -5.2090    43.4395    21.6925 </r>
       <r>    -5.1588    44.5010    23.9272 </r>
       <r>    -5.1086    44.0553    26.1395 </r>
       <r>    -5.0584    43.2443    28.3110 </r>
       <r>    -5.0082    44.7753    30.5595 </r>
       <r>    -4.9579    48.5554    32.9978 </r>
       <r>    -4.9077    51.4957    35.5837 </r>
       <r>    -4.8575    51.5924    38.1745 </r>
       <r>    -4.8073    51.2882    40.7500 </r>
       <r>    -4.7571    53.6381    43.4435 </r>
       <r>    -4.7069    55.7021    46.2407 </r>
       <r>    -4.6566    53.2755    48.9160 </r>
       <r>    -4.6064    47.7291    51.3128 </r>
       <r>    -4.5562    42.6930    53.4567 </r>
       <r>    -4.5060    40.6146    55.4962 </r>
       <r>    -4.4558    42.1283    57.6117 </r>
       <r>    -4.4056    44.8911    59.8660 </r>
       <r>    -4.3553    46.3025    62.1911 </r>
       <r>    -4.3051    47.1884    64.5608 </r>
       <r>    -4.2549    49.0240    67.0226 </r>
       <r>    -4.2047    51.8270    69.6252 </r>
       <r>    -4.1545    56.2000    72.4473 </r>
       <r>    -4.1043    61.8269    75.5521 </r>
       <r>    -4.0540    64.9954    78.8159 </r>
       <r>    -4.0038    63.3949    81.9994 </r>
       <r>    -3.9536    60.3865    85.0318 </r>
       <r>    -3.9034    59.4286    88.0160 </r>
       <r>    -3.8532    60.1603    91.0371 </r>
       <r>    -3.8030    60.9203    94.0963 </r>
       <r>    -3.7527    59.8140    97.0999 </r>
       <r>    -3.7025    56.2607    99.9251 </r>
       <r>    -3.6523    53.3543   102.6044 </r>
       <r>    -3.6021    54.7645   105.3545 </r>
       <r>    -3.5519    59.6300   108.3489 </r>
       <r>    -3.5017    63.7804   111.5517 </r>
       <r>    -3.4514    64.9433   114.8129 </r>
       <r>    -3.4012    63.6875   118.0111 </r>
       <r>    -3.3510    60.6870   121.0586 </r>
       <r>    -3.3008    56.2807   123.8848 </r>
       <r>    -3.2506    53.2204   126.5573 </r>
       <r>    -3.2004    55.6438   129.3516 </r>
       <r>    -3.1501    62.5389   132.4921 </r>
       <r>    -3.0999    67.6428   135.8888 </r>
       <r>    -3.0497    67.2147   139.2641 </r>
       <r>    -2.9995    63.2129   142.4385 </r>
       <r>    -2.9493    60.3506   145.4690 </r>
       <r>    -2.8991    62.2815   148.5966 </r>
       <r>    -2.8488    68.3616   152.0295 </r>
       <r>    -2.7986    75.1160   155.8015 </r>
       <r>    -2.7484    79.5858   159.7981 </r>
       <r>    -2.6982    79.3226   163.7814 </r>
       <r>    -2.6480    75.0131   167.5482 </r>
       <r>    -2.5978    70.8347   171.1053 </r>
       <r>    -2.5476    68.0785   174.5240 </r>
       <r>    -2.4973    63.5526   177.7154 </r>
       <r>    -2.4471    53.8005   180.4170 </r>
       <r>    -2.3969    39.2894   182.3900 </r>
       <r>    -2.3467    25.3116   183.6611 </r>
       <r>    -2.2965    16.3428   184.4817 </r>
       <r>    -2.2463    11.8141   185.0750 </r>
       <r>    -2.1960     9.3840   185.5462 </r>
       <r>    -2.1458     8.0149   185.9487 </r>
       <r>    -2.0956     7.3882   186.3197 </r>
       <r>    -2.0454     7.2192   186.6822 </r>
       <r>    -1.9952     6.9644   187.0320 </r>
       <r>    -1.9450     5.9131   187.3289 </r>
       <r>    -1.8947     4.1931   187.5395 </r>
       <r>    -1.8445     2.7460   187.6774 </r>
       <r>    -1.7943     2.1977   187.7877 </r>
       <r>    -1.7441     2.7660   187.9266 </r>
       <r>    -1.6939     4.1671   188.1359 </r>
       <r>    -1.6437     5.3283   188.4034 </r>
       <r>    -1.5934     5.3719   188.6732 </r>
       <r>    -1.5432     4.4800   188.8982 </r>
       <r>    -1.4930     3.5980   189.0789 </r>
       <r>    -1.4428     3.7693   189.2681 </r>
       <r>    -1.3926     4.9561   189.5170 </r>
       <r>    -1.3424     5.6780   189.8021 </r>
       <r>    -1.2921     5.0470   190.0556 </r>
       <r>    -1.2419     4.0560   190.2593 </r>
       <r>    -1.1917     3.8722   190.4537 </r>
       <r>    -1.1415     4.2343   190.6663 </r>
       <r>    -1.0913     4.2937   190.8820 </r>
       <r>    -1.0411     4.0307   191.0844 </r>
       <r>    -0.9908     3.8952   191.2800 </r>
       <r>    -0.9406     3.8588   191.4737 </r>
       <r>    -0.8904     3.8387   191.6665 </r>
       <r>    -0.8402     4.0047   191.8676 </r>
       <r>    -0.7900     4.2129   192.0792 </r>
       <r>    -0.7398     4.3750   192.2989 </r>
       <r>    -0.6895     4.5901   192.5294 </r>
       <r>    -0.6393     4.5378   192.7572 </r>
       <r>    -0.5891     4.3446   192.9754 </r>
       <r>    -0.5389     4.6638   193.2096 </r>
       <r>    -0.4887     5.1394   193.4677 </r>
       <r>    -0.4385     4.8803   193.7128 </r>
       <r>    -0.3882     3.9226   193.9097 </r>
       <r>    -0.3380     3.2080   194.0708 </r>
       <r>    -0.2878     3.4386   194.2435 </r>
       <r>    -0.2376     4.3113   194.4600 </r>
       <r>    -0.1874     5.0466   194.7134 </r>
       <r>    -0.1372     5.1737   194.9732 </r>
       <r>    -0.0869     4.9650   195.2226 </r>
       <r>    -0.0367     5.0673   195.4770 </r>
       <r>     0.0135     5.4173   195.7491 </r>
       <r>     0.0637     5.1852   196.0094 </r>
       <r>     0.1139     4.1800   196.2193 </r>
       <r>     0.1641     3.3242   196.3863 </r>
       <r>     0.2144     3.3799   196.5560 </r>
       <r>     0.2646     4.2708   196.7705 </r>
       <r>     0.3148     5.4247   197.0429 </r>
       <r>     0.3650     5.9195   197.3401 </r>
       <r>     0.4152     5.2046   197.6015 </r>
       <r>     0.4654     3.9491   197.7998 </r>
       <r>     0.5157     3.3147   197.9663 </r>
       <r>     0.5659     4.0082   198.1675 </r>
       <r>     0.6161     5.6432   198.4509 </r>
       <r>     0.6663     6.7070   198.7877 </r>
       <r>     0.7165     6.6457   199.1214 </r>
       <r>     0.7667     6.4252   199.4441 </r>
       <r>     0.8170     6.3558   199.7632 </r>
       <r>     0.8672     6.3797   200.0836 </r>
       <r>     0.9174     6.9647   200.4334 </r>
       <r>     0.9676     7.4445   200.8072 </r>
       <r>     1.0178     6.4968   201.1334 </r>
       <r>     1.0680     4.7477   201.3719 </r>
       <r>     1.1183     4.0141   201.5734 </r>
       <r>     1.1685     4.8691   201.8179 </r>
       <r>     1.2187     6.4636   202.1425 </r>
       <r>     1.2689     7.4730   202.5178 </r>
       <r>     1.3191     7.1155   202.8751 </r>
       <r>     1.3693     5.9487   203.1738 </r>
       <r>     1.4195     5.0901   203.4294 </r>
       <r>     1.4698     4.8179   203.6714 </r>
       <r>     1.5200     4.8031   203.9126 </r>
       <r>     1.5702     4.8430   204.1558 </r>
       <r>     1.6204     4.8854   204.4011 </r>
       <r>     1.6706     4.9190   204.6481 </r>
       <r>     1.7208     4.9566   204.8970 </r>
       <r>     1.7711     4.9483   205.1455 </r>
       <r>     1.8213     4.8402   205.3885 </r>
       <r>     1.8715     4.9124   205.6352 </r>
       <r>     1.9217     5.4749   205.9102 </r>
       <r>     1.9719     5.9951   206.2112 </r>
       <r>     2.0221     5.9254   206.5088 </r>
       <r>     2.0724     5.8831   206.8042 </r>
       <r>     2.1226     6.4338   207.1273 </r>
       <r>     2.1728     7.1129   207.4845 </r>
       <r>     2.2230     7.3075   207.8514 </r>
       <r>     2.2732     6.9378   208.1998 </r>
       <r>     2.3234     6.1824   208.5103 </r>
       <r>     2.3737     5.0897   208.7659 </r>
       <r>     2.4239     4.0362   208.9686 </r>
       <r>     2.4741     3.8966   209.1642 </r>
       <r>     2.5243     4.7823   209.4044 </r>
       <r>     2.5745     5.7072   209.6910 </r>
       <r>     2.6247     6.1862   210.0016 </r>
       <r>     2.6750     6.8114   210.3437 </r>
       <r>     2.7252     7.6872   210.7297 </r>
       <r>     2.7754     7.5302   211.1078 </r>
       <r>     2.8256     5.7183   211.3950 </r>
       <r>     2.8758     3.8821   211.5899 </r>
       <r>     2.9260     3.7279   211.7771 </r>
       <r>     2.9763     4.8083   212.0186 </r>
       <r>     3.0265     5.6695   212.3033 </r>
       <r>     3.0767     5.9598   212.6026 </r>
       <r>     3.1269     6.2642   212.9171 </r>
       <r>     3.1771     6.7849   213.2578 </r>
       <r>     3.2273     7.2224   213.6205 </r>
       <r>     3.2776     7.1139   213.9778 </r>
       <r>     3.3278     6.1053   214.2843 </r>
       <r>     3.3780     4.6665   214.5187 </r>
       <r>     3.4282     3.8382   214.7114 </r>
       <r>     3.4784     3.8900   214.9068 </r>
       <r>     3.5286     4.4877   215.1321 </r>
       <r>     3.5789     5.8184   215.4243 </r>
       <r>     3.6291     8.1631   215.8342 </r>
       <r>     3.6793    10.8791   216.3805 </r>
       <r>     3.7295    12.6016   217.0133 </r>
       <r>     3.7797    12.3860   217.6353 </r>
       <r>     3.8299    10.7885   218.1771 </r>
       <r>     3.8802     9.1913   218.6386 </r>
       <r>     3.9304     7.9537   219.0380 </r>
       <r>     3.9806     6.8660   219.3828 </r>
       <r>     4.0308     6.1990   219.6941 </r>
       <r>     4.0810     5.9346   219.9921 </r>
       <r>     4.1312     6.0525   220.2961 </r>
       <r>     4.1815     6.6908   220.6321 </r>
       <r>     4.2317     7.2792   220.9976 </r>
       <r>     4.2819     7.0460   221.3514 </r>
       <r>     4.3321     5.9408   221.6497 </r>
       <r>     4.3823     4.9280   221.8972 </r>
       <r>     4.4325     5.0830   222.1525 </r>
       <r>     4.4828     6.5302   222.4804 </r>
       <r>     4.5330     8.5346   222.9090 </r>
       <r>     4.5832     9.6918   223.3956 </r>
       <r>     4.6334     9.1263   223.8539 </r>
       <r>     4.6836     7.7489   224.2431 </r>
       <r>     4.7338     6.9431   224.5917 </r>
       <r>     4.7841     7.2115   224.9539 </r>
       <r>     4.8343     8.4173   225.3765 </r>
       <r>     4.8845    10.0572   225.8816 </r>
       <r>     4.9347    11.3634   226.4522 </r>
       <r>     4.9849    11.6348   227.0365 </r>
       <r>     5.0351    10.6967   227.5736 </r>
       <r>     5.0854     8.8922   228.0202 </r>
       <r>     5.1356     6.8411   228.3637 </r>
       <r>     5.1858     5.3312   228.6314 </r>
       <r>     5.2360     5.1227   228.8887 </r>
       <r>     5.2862     6.3630   229.2082 </r>
       <r>     5.3364     8.0072   229.6103 </r>
       <r>     5.3866     8.8113   230.0527 </r>
       <r>     5.4369     8.4183   230.4755 </r>
       <r>     5.4871     7.1109   230.8326 </r>
       <r>     5.5373     5.8151   231.1246 </r>
       <r>     5.5875     5.8239   231.4170 </r>
       <r>     5.6377     7.3522   231.7862 </r>
       <r>     5.6879     9.2684   232.2517 </r>
       <r>     5.7382    10.8802   232.7980 </r>
       <r>     5.7884    12.4367   233.4226 </r>
       <r>     5.8386    13.6249   234.1068 </r>
       <r>     5.8888    13.3572   234.7775 </r>
       <r>     5.9390    11.2617   235.3430 </r>
       <r>     5.9892     8.4213   235.7659 </r>
       <r>     6.0395     6.1935   236.0769 </r>
       <r>     6.0897     4.8601   236.3210 </r>
       <r>     6.1399     3.9046   236.5171 </r>
       <r>     6.1901     3.0529   236.6704 </r>
       <r>     6.2403     2.4725   236.7945 </r>
       <r>     6.2905     1.9942   236.8947 </r>
       <r>     6.3408     1.2973   236.9598 </r>
       <r>     6.3910     0.5871   236.9893 </r>
       <r>     6.4412     0.1749   236.9981 </r>
       <r>     6.4914     0.0336   236.9998 </r>
       <r>     6.5416     0.0041   237.0000 </r>
       <r>     6.5918     0.0003   237.0000 </r>
       <r>     6.6421     0.0000   237.0000 </r>
       <r>     6.6923     0.0000   237.0000 </r>
       <r>     6.7425     0.0000   237.0000 </r>
       <r>     6.7927     0.0000   237.0000 </r>
       <r>     6.8429     0.0000   237.0000 </r>
       <r>     6.8931     0.0000   237.0000 </r>
       <r>     6.9434     0.0000   237.0000 </r>
       <r>     6.9936     0.0000   237.0000 </r>
       <r>     7.0438     0.0000   237.0000 </r>
       <r>     7.0940     0.0000   237.0000 </r>
       <r>     7.1442     0.0000   237.0000 </r>
       <r>     7.1944     0.0000   237.0000 </r>
       <r>     7.2447     0.0000   237.0000 </r>
       <r>     7.2949     0.0000   237.0000 </r>
      </set>
     </set>
    </array>
   </total>
  </dos>
 </calculation>
 <structure name="finalpos" >
  <crystal>
   <varray name="basis" >
    <v>       8.64225908       0.00000000       0.00000000 </v>
    <v>       0.00000000       8.64225908       0.00000000 </v>
    <v>       0.00000000       0.00000000      22.11100000 </v>
   </varray>
   <i name="volume">   1651.44056326 </i>
   <varray name="rec_basis" >
    <v>       0.11571049       0.00000000       0.00000000 </v>
    <v>       0.00000000       0.11571049       0.00000000 </v>
    <v>       0.00000000       0.00000000       0.04522636 </v>
   </varray>
  </crystal>
  <varray name="positions" >
   <v>       0.00000000      -0.00000000       0.27870728 </v>
   <v>       0.33333333       0.00000000       0.27870728 </v>
   <v>       0.66666667       0.00000000       0.27870728 </v>
   <v>       0.00000000       0.33333333       0.27870728 </v>
   <v>       0.33333333       0.33333333       0.27870728 </v>
   <v>       0.66666667       0.33333333       0.27870728 </v>
   <v>      -0.00000000       0.66666667       0.27870728 </v>
   <v>       0.33333333       0.66666667       0.27870728 </v>
   <v>       0.66666667       0.66666667       0.27870728 </v>
   <v>       0.16666667       0.16666667       0.18558292 </v>
   <v>       0.50000000       0.16666667       0.18558292 </v>
   <v>       0.83333333       0.16666667       0.18558292 </v>
   <v>       0.16666667       0.50000000       0.18558292 </v>
   <v>       0.50000000       0.50000000       0.18558292 </v>
   <v>       0.83333333       0.50000000       0.18558292 </v>
   <v>       0.16666667       0.83333333       0.18558292 </v>
   <v>       0.50000000       0.83333333       0.18558292 </v>
   <v>       0.83333333       0.83333333       0.18558292 </v>
   <v>       0.00000000       0.00000000       0.09212609 </v>
   <v>       0.33333333       0.00000000       0.09212609 </v>
   <v>       0.66666667       0.00000000       0.09212609 </v>
   <v>       0.00000000       0.33333333       0.09212609 </v>
   <v>       0.33333333       0.33333333       0.09212609 </v>
   <v>       0.66666667       0.33333333       0.09212609 </v>
   <v>       0.00000000       0.66666667       0.09212609 </v>
   <v>       0.33333333       0.66666667       0.09212609 </v>
   <v>       0.66666667       0.66666667       0.09212609 </v>
   <v>       0.16666667       0.16666667       0.00000000 </v>
   <v>       0.50000000       0.16666667       0.00000000 </v>
   <v>       0.83333333       0.16666667       0.00000000 </v>
   <v>       0.16666667       0.50000000       0.00000000 </v>
   <v>       0.50000000       0.50000000       0.00000000 </v>
   <v>       0.83333333       0.50000000       0.00000000 </v>
   <v>       0.16666667       0.83333333       0.00000000 </v>
   <v>       0.50000000       0.83333333       0.00000000 </v>
   <v>       0.83333333       0.83333333       0.00000000 </v>
  </varray>
  <varray name="selective"  type="logical" >
   <v type="logical" >  T  T  T </v>
   <v type="logical" >  T  T  T </v>
   <v type="logical" >  T  T  T </v>
   <v type="logical" >  T  T  T </v>
   <v type="logical" >  T  T  T </v>
   <v type="logical" >  T  T  T </v>
   <v type="logical" >  T  T  T </v>
   <v type="logical" >  T  T  T </v>
   <v type="logical" >  T  T  T </v>
   <v type="logical" >  T  T  T </v>
   <v type="logical" >  T  T  T </v>
   <v type="logical" >  T  T  T </v>
   <v type="logical" >  T  T  T </v>
   <v type="logical" >  T  T  T </v>
   <v type="logical" >  T  T  T </v>
   <v type="logical" >  T  T  T </v>
   <v type="logical" >  T  T  T </v>
   <v type="logical" >  T  T  T </v>
   <v type="logical" >  F  F  F </v>
   <v type="logical" >  F  F  F </v>
   <v type="logical" >  F  F  F </v>
   <v type="logical" >  F  F  F </v>
   <v type="logical" >  F  F  F </v>
   <v type="logical" >  F  F  F </v>
   <v type="logical" >  F  F  F </v>
   <v type="logical" >  F  F  F </v>
   <v type="logical" >  F  F  F </v>
   <v type="logical" >  F  F  F </v>
   <v type="logical" >  F  F  F </v>
   <v type="logical" >  F  F  F </v>
   <v type="logical" >  F  F  F </v>
   <v type="logical" >  F  F  F </v>
   <v type="logical" >  F  F  F </v>
   <v type="logical" >  F  F  F </v>
   <v type="logical" >  F  F  F </v>
   <v type="logical" >  F  F  F </v>
  </varray>
  <nose>
   <v>      -3.00000000       0.00000000       0.00010000       0.00010000 </v>
  </nose>
 </structure>
</modeling>
