       N       E                     dE             d eps       ncg     rms          rms(c)
DAV:   1     0.654603493150E+04    0.65460E+04   -0.36624E+05  4464   0.129E+03
DAV:   2    -0.214945531097E+02   -0.65675E+04   -0.60949E+04  5460   0.281E+02
DAV:   3    -0.564989940096E+03   -0.54350E+03   -0.49644E+03  5064   0.774E+01
DAV:   4    -0.589275068566E+03   -0.24285E+02   -0.22747E+02  5436   0.161E+01
DAV:   5    -0.590021346978E+03   -0.74628E+00   -0.73518E+00  6000   0.294E+00    0.676E+01
DAV:   6    -0.569724517137E+03    0.20297E+02   -0.98038E+01  5100   0.201E+01    0.449E+01
DAV:   7    -0.129910079740E+04   -0.72938E+03   -0.32509E+02  6852   0.138E+02    0.175E+02
DAV:   8    -0.675515979019E+03    0.62358E+03   -0.51550E+02  5268   0.426E+01    0.831E+01
DAV:   9    -0.580153753090E+03    0.95362E+02   -0.15984E+02  5172   0.318E+01    0.409E+01
DAV:  10    -0.574464482809E+03    0.56893E+01   -0.58005E+01  5112   0.209E+01    0.435E+01
DAV:  11    -0.569321384410E+03    0.51431E+01   -0.29938E+01  4980   0.169E+01    0.365E+01
DAV:  12    -0.568080053167E+03    0.12413E+01   -0.24980E+01  5112   0.183E+01    0.334E+01
DAV:  13    -0.571562976301E+03   -0.34829E+01   -0.13736E+01  5004   0.125E+01    0.398E+01
DAV:  14    -0.560708531947E+03    0.10854E+02   -0.11395E+01  4860   0.104E+01    0.253E+01
DAV:  15    -0.556254840478E+03    0.44537E+01   -0.68580E+00  4884   0.712E+00    0.103E+01
DAV:  16    -0.555881184057E+03    0.37366E+00   -0.20146E+00  4860   0.424E+00    0.871E+00
DAV:  17    -0.555563067228E+03    0.31812E+00   -0.86434E-01  4872   0.281E+00    0.599E+00
DAV:  18    -0.555491987815E+03    0.71079E-01   -0.22921E-01  4854   0.150E+00    0.486E+00
DAV:  19    -0.555515630634E+03   -0.23643E-01   -0.39925E-01  5016   0.210E+00    0.555E+00
DAV:  20    -0.555408665359E+03    0.10697E+00   -0.36226E-01  4962   0.194E+00    0.427E+00
DAV:  21    -0.555412463355E+03   -0.37980E-02   -0.34261E-01  5016   0.183E+00    0.430E+00
DAV:  22    -0.555375322136E+03    0.37141E-01   -0.32330E-01  4974   0.164E+00    0.382E+00
DAV:  23    -0.555302065420E+03    0.73257E-01   -0.14850E-01  4920   0.120E+00    0.234E+00
DAV:  24    -0.555282362222E+03    0.19703E-01   -0.85907E-02  5040   0.910E-01    0.205E+00
DAV:  25    -0.555268117695E+03    0.14245E-01   -0.57872E-02  5040   0.744E-01    0.173E+00
DAV:  26    -0.555249036985E+03    0.19081E-01   -0.24490E-02  4956   0.477E-01    0.989E-01
DAV:  27    -0.555243811136E+03    0.52258E-02   -0.95834E-03  4728   0.298E-01    0.902E-01
DAV:  28    -0.555237792135E+03    0.60190E-02   -0.12015E-02  4908   0.352E-01    0.823E-01
DAV:  29    -0.555234132703E+03    0.36594E-02   -0.78483E-03  4944   0.269E-01    0.682E-01
DAV:  30    -0.555230677166E+03    0.34555E-02   -0.50902E-03  4884   0.231E-01    0.426E-01
DAV:  31    -0.555229281220E+03    0.13959E-02   -0.27683E-03  4848   0.180E-01    0.290E-01
DAV:  32    -0.555229042876E+03    0.23834E-03   -0.12329E-03  4824   0.995E-02    0.248E-01
DAV:  33    -0.555228842759E+03    0.20012E-03   -0.13172E-03  4680   0.117E-01    0.172E-01
DAV:  34    -0.555229492391E+03   -0.64963E-03   -0.90891E-04  4632   0.906E-02    0.229E-01
DAV:  35    -0.555230018385E+03   -0.52599E-03   -0.72878E-04  3912   0.918E-02    0.976E-02
DAV:  36    -0.555230592998E+03   -0.57461E-03   -0.27196E-04  2928   0.545E-02    0.100E-01
DAV:  37    -0.555231451951E+03   -0.85895E-03   -0.27275E-04  3336   0.448E-02    0.950E-02
DAV:  38    -0.555231981038E+03   -0.52909E-03   -0.11893E-04  2772   0.334E-02    0.720E-02
DAV:  39    -0.555233138280E+03   -0.11572E-02   -0.16825E-04  2976   0.319E-02    0.749E-02
DAV:  40    -0.555234014228E+03   -0.87595E-03   -0.13760E-04  2868   0.315E-02    0.735E-02
DAV:  41    -0.555234532856E+03   -0.51863E-03   -0.90054E-05  2772   0.230E-02    0.558E-02
DAV:  42    -0.555234744706E+03   -0.21185E-03   -0.33057E-05  2820   0.169E-02    0.319E-02
DAV:  43    -0.555234894566E+03   -0.14986E-03   -0.13571E-05  2640   0.109E-02    0.333E-02
DAV:  44    -0.555235162133E+03   -0.26757E-03   -0.10016E-05  2628   0.934E-03    0.266E-02
DAV:  45    -0.555235392807E+03   -0.23067E-03   -0.10174E-05  2706   0.959E-03    0.187E-02
DAV:  46    -0.555235682368E+03   -0.28956E-03   -0.11550E-05  2706   0.828E-03    0.148E-02
DAV:  47    -0.555235791294E+03   -0.10893E-03   -0.56469E-06  2760   0.556E-03    0.132E-02
DAV:  48    -0.555235920128E+03   -0.12883E-03   -0.35781E-06  2700   0.379E-03    0.115E-02
DAV:  49    -0.555236023065E+03   -0.10294E-03   -0.24904E-06  2736   0.335E-03    0.934E-03
DAV:  50    -0.555236181718E+03   -0.15865E-03   -0.39921E-06  2688   0.360E-03    0.607E-03
DAV:  51    -0.555236251330E+03   -0.69612E-04   -0.24997E-06  2736   0.368E-03
   1 F= -.59371838E+03 E0= -.59316845E+03  d E =-.593718E+03  mag=     0.0011
       N       E                     dE             d eps       ncg     rms          rms(c)
DAV:   1    -0.555243788417E+03   -0.76067E-02   -0.78585E-02  4578   0.284E-01    0.648E-02
DAV:   2    -0.555244793564E+03   -0.10051E-02   -0.21498E-03  4686   0.121E-01    0.341E-01
DAV:   3    -0.555243881790E+03    0.91177E-03   -0.80239E-04  3228   0.116E-01    0.671E-02
DAV:   4    -0.555243963613E+03   -0.81823E-04   -0.22926E-04  2748   0.486E-02
   2 F= -.59372618E+03 E0= -.59317637E+03  d E =-.779856E-02  mag=     0.0013
       N       E                     dE             d eps       ncg     rms          rms(c)
DAV:   1    -0.555255197332E+03   -0.11316E-01   -0.34676E-01  4512   0.628E-01    0.169E-01
DAV:   2    -0.555266826274E+03   -0.11629E-01   -0.16078E-02  5286   0.409E-01    0.123E+00
DAV:   3    -0.555256735920E+03    0.10090E-01   -0.11867E-02  5340   0.437E-01    0.445E-01
DAV:   4    -0.555255645838E+03    0.10901E-02   -0.24101E-03  4770   0.176E-01    0.234E-01
DAV:   5    -0.555255573112E+03    0.72726E-04   -0.14534E-03  4656   0.119E-01    0.203E-01
DAV:   6    -0.555255409805E+03    0.16331E-03   -0.77705E-04  3336   0.900E-02    0.158E-01
DAV:   7    -0.555255368294E+03    0.41511E-04   -0.64252E-04  3012   0.763E-02
   3 F= -.59373769E+03 E0= -.59318783E+03  d E =-.115096E-01  mag=     0.0016
       N       E                     dE             d eps       ncg     rms          rms(c)
DAV:   1    -0.555273325810E+03   -0.17916E-01   -0.23281E+00  4464   0.179E+00    0.298E-01
DAV:   2    -0.555296546073E+03   -0.23220E-01   -0.51787E-02  4770   0.619E-01    0.164E+00
DAV:   3    -0.555280133579E+03    0.16412E-01   -0.29402E-02  4872   0.681E-01    0.821E-01
DAV:   4    -0.555276060859E+03    0.40727E-02   -0.72997E-03  4932   0.328E-01    0.392E-01
DAV:   5    -0.555276446961E+03   -0.38610E-03   -0.50549E-03  5010   0.205E-01    0.466E-01
DAV:   6    -0.555275133713E+03    0.13132E-02   -0.28986E-03  4920   0.169E-01    0.182E-01
DAV:   7    -0.555275626195E+03   -0.49248E-03   -0.17817E-03  4914   0.137E-01    0.312E-01
DAV:   8    -0.555275349036E+03    0.27716E-03   -0.18156E-03  4152   0.130E-01    0.250E-01
DAV:   9    -0.555275005374E+03    0.34366E-03   -0.80097E-04  2940   0.875E-02    0.108E-01
DAV:  10    -0.555274927269E+03    0.78104E-04   -0.19186E-04  2604   0.454E-02
   4 F= -.59375672E+03 E0= -.59320687E+03  d E =-.190283E-01  mag=     0.0022
       N       E                     dE             d eps       ncg     rms          rms(c)
DAV:   1    -0.555300146375E+03   -0.25141E-01   -0.11128E+01  4464   0.403E+00    0.506E-01
DAV:   2    -0.555322661468E+03   -0.22515E-01   -0.16866E-01  4608   0.725E-01    0.127E+00
DAV:   3    -0.555332336206E+03   -0.96747E-02   -0.48585E-02  4896   0.840E-01    0.167E+00
DAV:   4    -0.555316280505E+03    0.16056E-01   -0.27231E-02  4950   0.682E-01    0.895E-01
DAV:   5    -0.555312517225E+03    0.37633E-02   -0.13123E-02  4992   0.357E-01    0.578E-01
DAV:   6    -0.555311870823E+03    0.64640E-03   -0.74381E-03  4998   0.267E-01    0.514E-01
DAV:   7    -0.555312471958E+03   -0.60113E-03   -0.76698E-03  4926   0.261E-01    0.577E-01
DAV:   8    -0.555311939717E+03    0.53224E-03   -0.65120E-03  4992   0.246E-01    0.469E-01
DAV:   9    -0.555310488230E+03    0.14515E-02   -0.28971E-03  4908   0.178E-01    0.194E-01
DAV:  10    -0.555310351935E+03    0.13629E-03   -0.92490E-04  3732   0.900E-02    0.145E-01
DAV:  11    -0.555310324066E+03    0.27869E-04   -0.46169E-04  2868   0.663E-02
   5 F= -.59378877E+03 E0= -.59323931E+03  d E =-.320547E-01  mag=     0.0028
       N       E                     dE             d eps       ncg     rms          rms(c)
DAV:   1    -0.555290030197E+03    0.20322E-01   -0.48101E+01  4464   0.839E+00    0.940E-01
DAV:   2    -0.555371460647E+03   -0.81430E-01   -0.75425E-01  4584   0.141E+00    0.189E+00
DAV:   3    -0.555447690364E+03   -0.76230E-01   -0.16857E-01  4998   0.158E+00    0.363E+00
DAV:   4    -0.555358414035E+03    0.89276E-01   -0.10361E-01  4938   0.136E+00    0.137E+00
DAV:   5    -0.555350728293E+03    0.76857E-02   -0.34531E-02  5052   0.579E-01    0.110E+00
DAV:   6    -0.555348184795E+03    0.25435E-02   -0.26862E-02  5040   0.486E-01    0.931E-01
DAV:   7    -0.555349395100E+03   -0.12103E-02   -0.22520E-02  4986   0.474E-01    0.965E-01
DAV:   8    -0.555349453579E+03   -0.58479E-04   -0.23165E-02  4956   0.459E-01    0.993E-01
DAV:   9    -0.555343812541E+03    0.56410E-02   -0.13206E-02  4968   0.346E-01    0.412E-01
DAV:  10    -0.555343145066E+03    0.66748E-03   -0.38195E-03  4992   0.182E-01    0.304E-01
DAV:  11    -0.555342861246E+03    0.28382E-03   -0.18476E-03  4560   0.131E-01    0.205E-01
DAV:  12    -0.555342687452E+03    0.17379E-03   -0.59899E-04  3024   0.854E-02    0.132E-01
DAV:  13    -0.555342630897E+03    0.56554E-04   -0.15721E-04  2574   0.397E-02
   6 F= -.59380802E+03 E0= -.59325939E+03  d E =-.192439E-01  mag=     0.0037
       N       E                     dE             d eps       ncg     rms          rms(c)
DAV:   1    -0.553819835522E+03    0.15229E+01   -0.11057E+02  4512   0.964E+00    0.316E+00
DAV:   2    -0.553984615980E+03   -0.16478E+00   -0.30038E+00  4692   0.163E+00    0.251E+00
DAV:   3    -0.556129384675E+03   -0.21448E+01   -0.18205E+00  6024   0.550E+00    0.163E+01
DAV:   4    -0.554061594167E+03    0.20678E+01   -0.27188E+00  5778   0.521E+00    0.411E+00
DAV:   5    -0.553976686067E+03    0.84908E-01   -0.37138E-01  5520   0.190E+00    0.321E+00
DAV:   6    -0.553980818307E+03   -0.41322E-02   -0.27808E-01  5184   0.157E+00    0.318E+00
DAV:   7    -0.553936034519E+03    0.44784E-01   -0.16640E-01  5160   0.132E+00    0.185E+00
DAV:   8    -0.553917009702E+03    0.19025E-01   -0.72295E-02  5136   0.913E-01    0.131E+00
DAV:   9    -0.553913846726E+03    0.31630E-02   -0.47109E-02  5100   0.592E-01    0.106E+00
DAV:  10    -0.553910480482E+03    0.33662E-02   -0.22368E-02  5112   0.467E-01    0.733E-01
DAV:  11    -0.553906643245E+03    0.38372E-02   -0.61399E-03  5064   0.295E-01    0.353E-01
DAV:  12    -0.553906087919E+03    0.55533E-03   -0.16762E-03  4896   0.132E-01    0.240E-01
DAV:  13    -0.553905988199E+03    0.99720E-04   -0.10825E-03  3384   0.103E-01    0.211E-01
DAV:  14    -0.553905875217E+03    0.11298E-03   -0.76452E-04  3084   0.886E-02    0.159E-01
DAV:  15    -0.553905827261E+03    0.47956E-04   -0.27275E-04  2580   0.488E-02
   7 F= -.59235592E+03 E0= -.59180727E+03  d E =0.145210E+01  mag=     0.0049
       N       E                     dE             d eps       ncg     rms          rms(c)
DAV:   1    -0.555068398999E+03   -0.11625E+01   -0.23859E+01  4512   0.427E+00    0.129E+00
DAV:   2    -0.555099809700E+03   -0.31411E-01   -0.66947E-01  4800   0.776E-01    0.126E+00
DAV:   3    -0.555370480360E+03   -0.27067E+00   -0.24354E-01  5958   0.203E+00    0.601E+00
DAV:   4    -0.555112811663E+03    0.25767E+00   -0.30232E-01  5850   0.210E+00    0.189E+00
DAV:   5    -0.555097862319E+03    0.14949E-01   -0.74795E-02  5400   0.877E-01    0.157E+00
DAV:   6    -0.555099234510E+03   -0.13722E-02   -0.69904E-02  5196   0.764E-01    0.158E+00
DAV:   7    -0.555090295543E+03    0.89390E-02   -0.47758E-02  5088   0.663E-01    0.111E+00
DAV:   8    -0.555083918632E+03    0.63769E-02   -0.19941E-02  5064   0.440E-01    0.648E-01
DAV:   9    -0.555082459286E+03    0.14593E-02   -0.87844E-03  5040   0.287E-01    0.457E-01
DAV:  10    -0.555082233998E+03    0.22529E-03   -0.53169E-03  5028   0.221E-01    0.435E-01
DAV:  11    -0.555081140425E+03    0.10936E-02   -0.25887E-03  4800   0.155E-01    0.182E-01
DAV:  12    -0.555080943693E+03    0.19673E-03   -0.49995E-04  2952   0.724E-02    0.100E-01
DAV:  13    -0.555080917031E+03    0.26662E-04   -0.18150E-04  2604   0.466E-02
   8 F= -.59353294E+03 E0= -.59298469E+03  d E =-.117702E+01  mag=     0.0063
       N       E                     dE             d eps       ncg     rms          rms(c)
DAV:   1    -0.555379343969E+03   -0.29840E+00   -0.14685E+01  4536   0.331E+00    0.935E-01
DAV:   2    -0.555402359743E+03   -0.23016E-01   -0.39113E-01  4716   0.581E-01    0.955E-01
DAV:   3    -0.555434231851E+03   -0.31872E-01   -0.84556E-02  5268   0.863E-01    0.242E+00
DAV:   4    -0.555453331080E+03   -0.19099E-01   -0.10222E-01  5556   0.125E+00    0.274E+00
DAV:   5    -0.555405782836E+03    0.47548E-01   -0.65128E-02  5604   0.111E+00    0.131E+00
DAV:   6    -0.555399381508E+03    0.64013E-02   -0.29926E-02  5088   0.598E-01    0.910E-01
DAV:   7    -0.555397358629E+03    0.20229E-02   -0.20262E-02  5142   0.475E-01    0.834E-01
DAV:   8    -0.555393671159E+03    0.36875E-02   -0.11715E-02  5088   0.330E-01    0.469E-01
DAV:   9    -0.555392682851E+03    0.98831E-03   -0.45342E-03  4980   0.197E-01    0.282E-01
DAV:  10    -0.555392679833E+03    0.30173E-05   -0.22306E-03  4602   0.144E-01    0.290E-01
DAV:  11    -0.555392176319E+03    0.50351E-03   -0.10281E-03  3288   0.102E-01    0.121E-01
DAV:  12    -0.555392099019E+03    0.77301E-04   -0.22271E-04  2586   0.479E-02
   9 F= -.59384542E+03 E0= -.59329721E+03  d E =-.312478E+00  mag=     0.0077
       N       E                     dE             d eps       ncg     rms          rms(c)
DAV:   1    -0.555397338999E+03   -0.51627E-02   -0.13709E-01  4554   0.344E-01    0.128E-01
DAV:   2    -0.555402706273E+03   -0.53673E-02   -0.93302E-03  5292   0.279E-01    0.869E-01
DAV:   3    -0.555398980859E+03    0.37254E-02   -0.70203E-03  5340   0.320E-01    0.430E-01
DAV:   4    -0.555397601635E+03    0.13792E-02   -0.15161E-03  3348   0.151E-01    0.135E-01
DAV:   5    -0.555397572258E+03    0.29376E-04   -0.46906E-04  2916   0.681E-02
  10 F= -.59385073E+03 E0= -.59330263E+03  d E =-.531280E-02  mag=     0.0084
       N       E                     dE             d eps       ncg     rms          rms(c)
DAV:   1    -0.555401490013E+03   -0.38884E-02   -0.16186E-01  4548   0.432E-01    0.158E-01
DAV:   2    -0.555406090076E+03   -0.46001E-02   -0.11244E-02  5058   0.283E-01    0.830E-01
DAV:   3    -0.555402119765E+03    0.39703E-02   -0.72953E-03  5208   0.265E-01    0.260E-01
DAV:   4    -0.555402238363E+03   -0.11860E-03   -0.14919E-03  3396   0.154E-01    0.304E-01
DAV:   5    -0.555401744303E+03    0.49406E-03   -0.10503E-03  3144   0.125E-01    0.183E-01
DAV:   6    -0.555401652977E+03    0.91326E-04   -0.74395E-04  3132   0.820E-02
  11 F= -.59385416E+03 E0= -.59330608E+03  d E =-.343290E-02  mag=     0.0093
       N       E                     dE             d eps       ncg     rms          rms(c)
DAV:   1    -0.555405109406E+03   -0.33651E-02   -0.18144E-01  4560   0.506E-01    0.121E-01
DAV:   2    -0.555408425766E+03   -0.33164E-02   -0.79598E-03  4878   0.232E-01    0.701E-01
DAV:   3    -0.555406133617E+03    0.22921E-02   -0.53246E-03  5022   0.244E-01    0.319E-01
DAV:   4    -0.555405560469E+03    0.57315E-03   -0.12107E-03  3150   0.139E-01    0.190E-01
DAV:   5    -0.555405352189E+03    0.20828E-03   -0.49105E-04  2688   0.795E-02    0.105E-01
DAV:   6    -0.555405341857E+03    0.10331E-04   -0.31144E-04  2898   0.550E-02
  12 F= -.59385660E+03 E0= -.59330841E+03  d E =-.244016E-02  mag=     0.0102
       N       E                     dE             d eps       ncg     rms          rms(c)
DAV:   1    -0.555414877428E+03   -0.95252E-02   -0.20304E+00  4518   0.172E+00    0.237E-01
DAV:   2    -0.555419570356E+03   -0.46929E-02   -0.38081E-02  4542   0.308E-01    0.634E-01
DAV:   3    -0.555417676912E+03    0.18934E-02   -0.80670E-03  4974   0.246E-01    0.291E-01
DAV:   4    -0.555417903093E+03   -0.22618E-03   -0.23456E-03  4896   0.155E-01    0.337E-01
DAV:   5    -0.555420328940E+03   -0.24258E-02   -0.43018E-03  4752   0.266E-01    0.652E-01
DAV:   6    -0.555417632871E+03    0.26961E-02   -0.40800E-03  4656   0.256E-01    0.289E-01
DAV:   7    -0.555417788679E+03   -0.15581E-03   -0.24052E-03  4638   0.156E-01    0.348E-01
DAV:   8    -0.555417195748E+03    0.59293E-03   -0.15082E-03  3756   0.116E-01    0.146E-01
DAV:   9    -0.555417014545E+03    0.18120E-03   -0.31640E-04  2688   0.645E-02    0.602E-02
DAV:  10    -0.555416990140E+03    0.24405E-04   -0.95332E-05  2496   0.312E-02
  13 F= -.59386324E+03 E0= -.59331537E+03  d E =-.664331E-02  mag=     0.0122
       N       E                     dE             d eps       ncg     rms          rms(c)
DAV:   1    -0.555370144931E+03    0.46870E-01   -0.80513E+01  4464   0.108E+01    0.156E+00
DAV:   2    -0.555511284098E+03   -0.14114E+00   -0.14176E+00  4584   0.165E+00    0.258E+00
DAV:   3    -0.555792336701E+03   -0.28105E+00   -0.49120E-01  5364   0.262E+00    0.640E+00
DAV:   4    -0.555498610087E+03    0.29373E+00   -0.37467E-01  5304   0.225E+00    0.207E+00
DAV:   5    -0.555477036302E+03    0.21574E-01   -0.83073E-02  5220   0.904E-01    0.154E+00
DAV:   6    -0.555482306784E+03   -0.52705E-02   -0.72559E-02  5142   0.790E-01    0.177E+00
DAV:   7    -0.555478161747E+03    0.41450E-02   -0.66877E-02  5082   0.785E-01    0.143E+00
DAV:   8    -0.555469169504E+03    0.89922E-02   -0.36240E-02  5064   0.596E-01    0.108E+00
DAV:   9    -0.555463882979E+03    0.52865E-02   -0.16944E-02  5004   0.384E-01    0.630E-01
DAV:  10    -0.555462739285E+03    0.11437E-02   -0.72854E-03  4992   0.271E-01    0.474E-01
DAV:  11    -0.555461493926E+03    0.12454E-02   -0.31844E-03  5040   0.189E-01    0.243E-01
DAV:  12    -0.555461239756E+03    0.25417E-03   -0.86760E-04  4164   0.894E-02    0.154E-01
DAV:  13    -0.555461133133E+03    0.10662E-03   -0.33583E-04  2724   0.618E-02    0.110E-01
DAV:  14    -0.555461149938E+03   -0.16804E-04   -0.35588E-04  2658   0.616E-02
  14 F= -.59387191E+03 E0= -.59332550E+03  d E =-.866753E-02  mag=     0.0154
       N       E                     dE             d eps       ncg     rms          rms(c)
DAV:   1    -0.554236329815E+03    0.12248E+01   -0.10516E+02  4476   0.919E+00    0.252E+00
DAV:   2    -0.554400089156E+03   -0.16376E+00   -0.27829E+00  4680   0.154E+00    0.238E+00
DAV:   3    -0.555593449456E+03   -0.11934E+01   -0.11415E+00  6084   0.423E+00    0.125E+01
DAV:   4    -0.554382456467E+03    0.12110E+01   -0.12969E+00  5772   0.396E+00    0.244E+00
DAV:   5    -0.554400663769E+03   -0.18207E-01   -0.27157E-01  5430   0.165E+00    0.342E+00
DAV:   6    -0.554372550797E+03    0.28113E-01   -0.27192E-01  5190   0.150E+00    0.265E+00
DAV:   7    -0.554335597903E+03    0.36953E-01   -0.11463E-01  5214   0.110E+00    0.149E+00
DAV:   8    -0.554324884206E+03    0.10714E-01   -0.45866E-02  5100   0.665E-01    0.992E-01
DAV:   9    -0.554322303982E+03    0.25802E-02   -0.23713E-02  5040   0.445E-01    0.732E-01
DAV:  10    -0.554321353702E+03    0.95028E-03   -0.13132E-02  5046   0.352E-01    0.630E-01
DAV:  11    -0.554318987255E+03    0.23664E-02   -0.62500E-03  4932   0.249E-01    0.315E-01
DAV:  12    -0.554318461398E+03    0.52586E-03   -0.15300E-03  4800   0.128E-01    0.178E-01
DAV:  13    -0.554318566252E+03   -0.10485E-03   -0.95025E-04  3564   0.971E-02    0.232E-01
DAV:  14    -0.554318355084E+03    0.21117E-03   -0.85660E-04  3024   0.865E-02    0.146E-01
DAV:  15    -0.554318205612E+03    0.14947E-03   -0.27151E-04  2622   0.535E-02    0.548E-02
DAV:  16    -0.554318181612E+03    0.24000E-04   -0.71038E-05  2568   0.286E-02
  15 F= -.59272275E+03 E0= -.59217703E+03  d E =0.114916E+01  mag=     0.0203
       N       E                     dE             d eps       ncg     rms          rms(c)
DAV:   1    -0.555196642866E+03   -0.87844E+00   -0.20400E+01  4464   0.405E+00    0.109E+00
DAV:   2    -0.555226950732E+03   -0.30308E-01   -0.52622E-01  4704   0.683E-01    0.103E+00
DAV:   3    -0.555393494432E+03   -0.16654E+00   -0.19176E-01  5880   0.162E+00    0.470E+00
DAV:   4    -0.555237759262E+03    0.15574E+00   -0.17728E-01  5712   0.167E+00    0.173E+00
DAV:   5    -0.555225288822E+03    0.12470E-01   -0.63809E-02  5508   0.778E-01    0.138E+00
DAV:   6    -0.555222532942E+03    0.27559E-02   -0.46991E-02  5172   0.638E-01    0.114E+00
DAV:   7    -0.555218601629E+03    0.39313E-02   -0.27471E-02  5124   0.540E-01    0.897E-01
DAV:   8    -0.555214657771E+03    0.39439E-02   -0.17316E-02  5124   0.386E-01    0.600E-01
DAV:   9    -0.555213127860E+03    0.15299E-02   -0.72964E-03  5052   0.251E-01    0.350E-01
DAV:  10    -0.555212878161E+03    0.24970E-03   -0.27053E-03  4998   0.175E-01    0.278E-01
DAV:  11    -0.555212274303E+03    0.60386E-03   -0.10368E-03  4050   0.118E-01    0.124E-01
DAV:  12    -0.555212173855E+03    0.10045E-03   -0.25847E-04  2640   0.522E-02    0.686E-02
DAV:  13    -0.555212165406E+03    0.84492E-05   -0.14082E-04  2526   0.360E-02
  16 F= -.59361781E+03 E0= -.59307195E+03  d E =-.895060E+00  mag=     0.0253
       N       E                     dE             d eps       ncg     rms          rms(c)
DAV:   1    -0.555487589213E+03   -0.27542E+00   -0.20182E+01  4524   0.404E+00    0.122E+00
DAV:   2    -0.555515491944E+03   -0.27903E-01   -0.50102E-01  4632   0.713E-01    0.116E+00
DAV:   3    -0.555803151387E+03   -0.28766E+00   -0.29545E-01  5862   0.208E+00    0.613E+00
DAV:   4    -0.555536695066E+03    0.26646E+00   -0.33299E-01  5886   0.213E+00    0.212E+00
DAV:   5    -0.555511641807E+03    0.25053E-01   -0.71893E-02  5526   0.839E-01    0.134E+00
DAV:   6    -0.555509036729E+03    0.26051E-02   -0.42656E-02  5166   0.634E-01    0.110E+00
DAV:   7    -0.555505708823E+03    0.33279E-02   -0.25222E-02  5124   0.542E-01    0.923E-01
DAV:   8    -0.555500683926E+03    0.50249E-02   -0.12937E-02  5010   0.370E-01    0.466E-01
DAV:   9    -0.555499759436E+03    0.92449E-03   -0.52246E-03  5016   0.223E-01    0.316E-01
DAV:  10    -0.555499957723E+03   -0.19829E-03   -0.32663E-03  4974   0.174E-01    0.366E-01
DAV:  11    -0.555499166627E+03    0.79110E-03   -0.17162E-03  4146   0.127E-01    0.153E-01
DAV:  12    -0.555499008683E+03    0.15794E-03   -0.31677E-04  2724   0.587E-02    0.839E-02
DAV:  13    -0.555498989319E+03    0.19364E-04   -0.17799E-04  2520   0.403E-02
  17 F= -.59390538E+03 E0= -.59335924E+03  d E =-.287565E+00  mag=     0.0314
       N       E                     dE             d eps       ncg     rms          rms(c)
DAV:   1    -0.555509190008E+03   -0.10181E-01   -0.18973E-01  4506   0.402E-01    0.119E-01
DAV:   2    -0.555512895731E+03   -0.37057E-02   -0.85757E-03  5292   0.238E-01    0.674E-01
DAV:   3    -0.555510297940E+03    0.25978E-02   -0.48252E-03  5058   0.266E-01    0.324E-01
DAV:   4    -0.555509573601E+03    0.72434E-03   -0.12060E-03  3240   0.123E-01    0.166E-01
DAV:   5    -0.555509497480E+03    0.76121E-04   -0.63920E-04  3096   0.751E-02
  18 F= -.59391551E+03 E0= -.59336954E+03  d E =-.101326E-01  mag=     0.0339
       N       E                     dE             d eps       ncg     rms          rms(c)
DAV:   1    -0.555515555159E+03   -0.59816E-02   -0.33097E-01  4554   0.561E-01    0.188E-01
DAV:   2    -0.555522540778E+03   -0.69856E-02   -0.15929E-02  5244   0.344E-01    0.928E-01
DAV:   3    -0.555519066446E+03    0.34743E-02   -0.11638E-02  5412   0.411E-01    0.636E-01
DAV:   4    -0.555516145785E+03    0.29207E-02   -0.35106E-03  4842   0.230E-01    0.235E-01
DAV:   5    -0.555516190835E+03   -0.45050E-04   -0.18545E-03  4824   0.125E-01    0.282E-01
DAV:   6    -0.555515790029E+03    0.40081E-03   -0.15267E-03  4038   0.117E-01    0.170E-01
DAV:   7    -0.555515700671E+03    0.89358E-04   -0.84997E-04  3372   0.920E-02
  19 F= -.59392097E+03 E0= -.59337497E+03  d E =-.546453E-02  mag=     0.0379
       N       E                     dE             d eps       ncg     rms          rms(c)
DAV:   1    -0.555517591035E+03   -0.18010E-02   -0.39306E-02  4548   0.239E-01    0.119E-01
DAV:   2    -0.555521699865E+03   -0.41088E-02   -0.75216E-03  5160   0.264E-01    0.776E-01
DAV:   3    -0.555518809394E+03    0.28905E-02   -0.68197E-03  5160   0.278E-01    0.392E-01
DAV:   4    -0.555517697670E+03    0.11117E-02   -0.14280E-03  3198   0.148E-01    0.156E-01
DAV:   5    -0.555517523575E+03    0.17409E-03   -0.36283E-04  2676   0.621E-02    0.680E-02
DAV:   6    -0.555517495208E+03    0.28367E-04   -0.13936E-04  2568   0.347E-02
  20 F= -.59392224E+03 E0= -.59337615E+03  d E =-.126469E-02  mag=     0.0410
       N       E                     dE             d eps       ncg     rms          rms(c)
DAV:   1    -0.555528746415E+03   -0.11223E-01   -0.90685E+00  4518   0.347E+00    0.564E-01
DAV:   2    -0.555541844904E+03   -0.13098E-01   -0.17046E-01  4584   0.499E-01    0.815E-01
DAV:   3    -0.555552469368E+03   -0.10624E-01   -0.34748E-02  5124   0.605E-01    0.140E+00
DAV:   4    -0.555559712661E+03   -0.72433E-02   -0.42267E-02  5196   0.820E-01    0.171E+00
DAV:   5    -0.555541356152E+03    0.18357E-01   -0.30455E-02  5280   0.616E-01    0.771E-01
DAV:   6    -0.555539566239E+03    0.17899E-02   -0.14757E-02  5226   0.380E-01    0.606E-01
DAV:   7    -0.555538925424E+03    0.64081E-03   -0.93513E-03  5118   0.314E-01    0.549E-01
DAV:   8    -0.555537954335E+03    0.97109E-03   -0.63042E-03  5112   0.235E-01    0.425E-01
DAV:   9    -0.555536778118E+03    0.11762E-02   -0.25177E-03  5016   0.153E-01    0.158E-01
DAV:  10    -0.555536683579E+03    0.94539E-04   -0.70766E-04  3606   0.868E-02
  21 F= -.59393173E+03 E0= -.59338616E+03  d E =-.948698E-02  mag=     0.0485
       N       E                     dE             d eps       ncg     rms          rms(c)
DAV:   1    -0.555503474942E+03    0.33303E-01   -0.37186E+01  4464   0.706E+00    0.121E+00
DAV:   2    -0.555569407806E+03   -0.65933E-01   -0.72035E-01  4584   0.105E+00    0.190E+00
DAV:   3    -0.555674521464E+03   -0.10511E+00   -0.23179E-01  5346   0.168E+00    0.403E+00
DAV:   4    -0.555621397945E+03    0.53124E-01   -0.22582E-01  5220   0.187E+00    0.319E+00
DAV:   5    -0.555554471558E+03    0.66926E-01   -0.94346E-02  5226   0.105E+00    0.125E+00
DAV:   6    -0.555556061990E+03   -0.15904E-02   -0.48365E-02  5172   0.689E-01    0.138E+00
DAV:   7    -0.555553436897E+03    0.26251E-02   -0.38552E-02  5058   0.646E-01    0.116E+00
DAV:   8    -0.555548009732E+03    0.54272E-02   -0.23143E-02  5112   0.522E-01    0.804E-01
DAV:   9    -0.555543369729E+03    0.46400E-02   -0.89298E-03  5010   0.309E-01    0.334E-01
DAV:  10    -0.555543197868E+03    0.17186E-03   -0.33561E-03  4968   0.172E-01    0.333E-01
DAV:  11    -0.555542829870E+03    0.36800E-03   -0.23409E-03  4452   0.139E-01    0.240E-01
DAV:  12    -0.555542481463E+03    0.34841E-03   -0.76117E-04  3048   0.878E-02    0.133E-01
DAV:  13    -0.555542412326E+03    0.69137E-04   -0.22523E-04  2580   0.466E-02
  22 F= -.59391692E+03 E0= -.59337174E+03  d E =0.148048E-01  mag=     0.0595
       N       E                     dE             d eps       ncg     rms          rms(c)
DAV:   1    -0.555596129884E+03   -0.53648E-01   -0.62844E+00  4524   0.285E+00    0.480E-01
DAV:   2    -0.555608986575E+03   -0.12857E-01   -0.13626E-01  4596   0.488E-01    0.883E-01
DAV:   3    -0.555612085900E+03   -0.30993E-02   -0.27664E-02  5010   0.518E-01    0.105E+00
DAV:   4    -0.555618038206E+03   -0.59523E-02   -0.25590E-02  5064   0.644E-01    0.137E+00
DAV:   5    -0.555606425502E+03    0.11613E-01   -0.19221E-02  5136   0.509E-01    0.643E-01
DAV:   6    -0.555604755456E+03    0.16700E-02   -0.10181E-02  5100   0.314E-01    0.507E-01
DAV:   7    -0.555604717699E+03    0.37756E-04   -0.75221E-03  5052   0.277E-01    0.506E-01
DAV:   8    -0.555604173602E+03    0.54410E-03   -0.64595E-03  5148   0.232E-01    0.445E-01
DAV:   9    -0.555602820015E+03    0.13536E-02   -0.28109E-03  4920   0.157E-01    0.141E-01
DAV:  10    -0.555602691290E+03    0.12872E-03   -0.51999E-04  2982   0.730E-02    0.102E-01
DAV:  11    -0.555602650629E+03    0.40661E-04   -0.26046E-04  2712   0.540E-02
  23 F= -.59397136E+03 E0= -.59342688E+03  d E =-.544409E-01  mag=     0.0711
       N       E                     dE             d eps       ncg     rms          rms(c)
DAV:   1    -0.555626714651E+03   -0.24023E-01   -0.71478E+01  4464   0.991E+00    0.186E+00
DAV:   2    -0.555815529697E+03   -0.18882E+00   -0.14224E+00  4608   0.180E+00    0.384E+00
DAV:   3    -0.556032582758E+03   -0.21705E+00   -0.65430E-01  5304   0.300E+00    0.640E+00
DAV:   4    -0.555763846156E+03    0.26874E+00   -0.41638E-01  5220   0.235E+00    0.269E+00
DAV:   5    -0.555728289476E+03    0.35557E-01   -0.13356E-01  5262   0.117E+00    0.198E+00
DAV:   6    -0.555727610014E+03    0.67946E-03   -0.95129E-02  5112   0.898E-01    0.196E+00
DAV:   7    -0.555722540896E+03    0.50691E-02   -0.83801E-02  5166   0.902E-01    0.160E+00
DAV:   8    -0.555711678485E+03    0.10862E-01   -0.50828E-02  5076   0.716E-01    0.117E+00
DAV:   9    -0.555705589753E+03    0.60887E-02   -0.25121E-02  5016   0.470E-01    0.793E-01
DAV:  10    -0.555702672107E+03    0.29176E-02   -0.10943E-02  5052   0.307E-01    0.462E-01
DAV:  11    -0.555701489436E+03    0.11827E-02   -0.37125E-03  5040   0.202E-01    0.287E-01
DAV:  12    -0.555700932854E+03    0.55658E-03   -0.13260E-03  4644   0.121E-01    0.151E-01
DAV:  13    -0.555700827332E+03    0.10552E-03   -0.36725E-04  2730   0.603E-02    0.102E-01
DAV:  14    -0.555700747149E+03    0.80183E-04   -0.31103E-04  2748   0.584E-02
  24 F= -.59403973E+03 E0= -.59349690E+03  d E =-.683646E-01  mag=     0.0881
       N       E                     dE             d eps       ncg     rms          rms(c)
DAV:   1    -0.554416421874E+03    0.12844E+01   -0.90935E+01  4464   0.920E+00    0.255E+00
DAV:   2    -0.554723700566E+03   -0.30728E+00   -0.27522E+00  4764   0.218E+00    0.458E+00
DAV:   3    -0.555255202496E+03   -0.53150E+00   -0.10607E+00  5604   0.404E+00    0.936E+00
DAV:   4    -0.554634804802E+03    0.62040E+00   -0.90493E-01  5472   0.311E+00    0.331E+00
DAV:   5    -0.554596300616E+03    0.38504E-01   -0.31295E-01  5376   0.161E+00    0.301E+00
DAV:   6    -0.554579673369E+03    0.16627E-01   -0.20732E-01  5130   0.135E+00    0.246E+00
DAV:   7    -0.554567474987E+03    0.12198E-01   -0.12984E-01  5142   0.122E+00    0.194E+00
DAV:   8    -0.554540858906E+03    0.26616E-01   -0.64795E-02  5070   0.897E-01    0.993E-01
DAV:   9    -0.554539585563E+03    0.12733E-02   -0.34242E-02  5100   0.571E-01    0.986E-01
DAV:  10    -0.554537335169E+03    0.22504E-02   -0.23238E-02  5088   0.442E-01    0.778E-01
DAV:  11    -0.554533644915E+03    0.36903E-02   -0.10034E-02  5106   0.303E-01    0.370E-01
DAV:  12    -0.554532892448E+03    0.75247E-03   -0.20713E-03  4896   0.138E-01    0.215E-01
DAV:  13    -0.554532789102E+03    0.10335E-03   -0.82858E-04  3432   0.879E-02    0.199E-01
DAV:  14    -0.554532575386E+03    0.21372E-03   -0.56856E-04  2928   0.755E-02    0.147E-01
DAV:  15    -0.554532406197E+03    0.16919E-03   -0.28448E-04  2712   0.537E-02    0.800E-02
DAV:  16    -0.554532324788E+03    0.81409E-04   -0.10114E-04  2580   0.321E-02
  25 F= -.59286381E+03 E0= -.59232078E+03  d E =0.117592E+01  mag=     0.1120
       N       E                     dE             d eps       ncg     rms          rms(c)
DAV:   1    -0.555529188320E+03   -0.99678E+00   -0.27734E+01  4554   0.486E+00    0.132E+00
DAV:   2    -0.555577587580E+03   -0.48399E-01   -0.77570E-01  4686   0.881E-01    0.113E+00
DAV:   3    -0.555596073466E+03   -0.18486E-01   -0.10795E-01  5040   0.100E+00    0.208E+00
DAV:   4    -0.555647406939E+03   -0.51333E-01   -0.14840E-01  5406   0.139E+00    0.334E+00
DAV:   5    -0.555614204241E+03    0.33203E-01   -0.18127E-01  5466   0.158E+00    0.264E+00
DAV:   6    -0.555571787173E+03    0.42417E-01   -0.89802E-02  5280   0.102E+00    0.131E+00
DAV:   7    -0.555569386558E+03    0.24006E-02   -0.40135E-02  5160   0.639E-01    0.119E+00
DAV:   8    -0.555562318706E+03    0.70679E-02   -0.23807E-02  5130   0.502E-01    0.755E-01
DAV:   9    -0.555558865025E+03    0.34537E-02   -0.98501E-03  5148   0.303E-01    0.338E-01
DAV:  10    -0.555558946567E+03   -0.81542E-04   -0.44499E-03  4974   0.191E-01    0.362E-01
DAV:  11    -0.555558216500E+03    0.73007E-03   -0.22240E-03  4548   0.144E-01    0.212E-01
DAV:  12    -0.555557831408E+03    0.38509E-03   -0.56663E-04  3048   0.818E-02    0.712E-02
DAV:  13    -0.555557780231E+03    0.51178E-04   -0.22193E-04  2676   0.465E-02
  26 F= -.59388981E+03 E0= -.59334741E+03  d E =-.102600E+01  mag=     0.1357
       N       E                     dE             d eps       ncg     rms          rms(c)
DAV:   1    -0.555711533579E+03   -0.15370E+00   -0.79775E+00  4500   0.265E+00    0.698E-01
DAV:   2    -0.555730595743E+03   -0.19062E-01   -0.23171E-01  4740   0.560E-01    0.101E+00
DAV:   3    -0.555749036055E+03   -0.18440E-01   -0.57065E-02  5274   0.772E-01    0.189E+00
DAV:   4    -0.555762311848E+03   -0.13276E-01   -0.80588E-02  5478   0.106E+00    0.225E+00
DAV:   5    -0.555727286677E+03    0.35025E-01   -0.54821E-02  5664   0.809E-01    0.869E-01
DAV:   6    -0.555723584291E+03    0.37024E-02   -0.14528E-02  5346   0.407E-01    0.600E-01
DAV:   7    -0.555723552035E+03    0.32257E-04   -0.11643E-02  5184   0.360E-01    0.636E-01
DAV:   8    -0.555722407878E+03    0.11442E-02   -0.99712E-03  5160   0.290E-01    0.553E-01
DAV:   9    -0.555720386378E+03    0.20215E-02   -0.46193E-03  5184   0.195E-01    0.167E-01
DAV:  10    -0.555720318763E+03    0.67615E-04   -0.10001E-03  4236   0.103E-01    0.173E-01
DAV:  11    -0.555720099852E+03    0.21891E-03   -0.63782E-04  2976   0.830E-02    0.159E-01
DAV:  12    -0.555719871877E+03    0.22797E-03   -0.32682E-04  2682   0.556E-02    0.788E-02
DAV:  13    -0.555719771839E+03    0.10004E-03   -0.77584E-05  2496   0.280E-02    0.424E-02
DAV:  14    -0.555719604684E+03    0.16715E-03   -0.32716E-05  2568   0.180E-02    0.417E-02
DAV:  15    -0.555719394274E+03    0.21041E-03   -0.21259E-05  2616   0.154E-02    0.305E-02
DAV:  16    -0.555719280982E+03    0.11329E-03   -0.80647E-06  2526   0.897E-03    0.250E-02
DAV:  17    -0.555719186152E+03    0.94830E-04   -0.27259E-06  2568   0.435E-03
  27 F= -.59405162E+03 E0= -.59350958E+03  d E =-.161810E+00  mag=     0.1708
       N       E                     dE             d eps       ncg     rms          rms(c)
DAV:   1    -0.555733301041E+03   -0.14020E-01   -0.24059E-01  4584   0.465E-01    0.134E-01
DAV:   2    -0.555733344904E+03   -0.43864E-04   -0.65619E-03  4608   0.805E-02    0.114E-01
DAV:   3    -0.555733813439E+03   -0.46853E-03   -0.14293E-03  4224   0.125E-01    0.323E-01
DAV:   4    -0.555734059831E+03   -0.24639E-03   -0.24784E-03  3636   0.189E-01    0.391E-01
DAV:   5    -0.555732947132E+03    0.11127E-02   -0.19615E-03  3480   0.161E-01    0.197E-01
DAV:   6    -0.555732706603E+03    0.24053E-03   -0.71242E-04  3108   0.803E-02    0.138E-01
DAV:   7    -0.555732452613E+03    0.25399E-03   -0.33333E-04  2760   0.601E-02    0.102E-01
DAV:   8    -0.555732272280E+03    0.18033E-03   -0.15030E-04  2586   0.409E-02    0.610E-02
DAV:   9    -0.555732141771E+03    0.13051E-03   -0.74246E-05  2568   0.268E-02    0.473E-02
DAV:  10    -0.555731908190E+03    0.23358E-03   -0.57946E-05  2586   0.226E-02    0.522E-02
DAV:  11    -0.555731666320E+03    0.24187E-03   -0.30406E-05  2616   0.177E-02    0.342E-02
DAV:  12    -0.555731546307E+03    0.12001E-03   -0.62982E-06  2520   0.840E-03    0.270E-02
DAV:  13    -0.555731510675E+03    0.35632E-04   -0.10946E-06  2526   0.194E-03
  28 F= -.59406372E+03 E0= -.59352174E+03  d E =-.120971E-01  mag=     0.1988
       N       E                     dE             d eps       ncg     rms          rms(c)
DAV:   1    -0.555747641709E+03   -0.16095E-01   -0.91327E-01  4608   0.961E-01    0.254E-01
DAV:   2    -0.555748457807E+03   -0.81610E-03   -0.23504E-02  4566   0.150E-01    0.202E-01
DAV:   3    -0.555749407848E+03   -0.95004E-03   -0.49298E-03  5316   0.197E-01    0.483E-01
DAV:   4    -0.555749773352E+03   -0.36550E-03   -0.69753E-03  5274   0.263E-01    0.552E-01
DAV:   5    -0.555749570298E+03    0.20305E-03   -0.57063E-03  4956   0.289E-01    0.549E-01
DAV:   6    -0.555747746316E+03    0.18240E-02   -0.41166E-03  4824   0.223E-01    0.289E-01
DAV:   7    -0.555747131870E+03    0.61445E-03   -0.11688E-03  3540   0.114E-01    0.150E-01
DAV:   8    -0.555746868775E+03    0.26310E-03   -0.40494E-04  2730   0.689E-02    0.955E-02
DAV:   9    -0.555746700230E+03    0.16854E-03   -0.26149E-04  2616   0.492E-02    0.921E-02
DAV:  10    -0.555746365807E+03    0.33442E-03   -0.18276E-04  2532   0.416E-02    0.790E-02
DAV:  11    -0.555746095497E+03    0.27031E-03   -0.81549E-05  2592   0.295E-02    0.481E-02
DAV:  12    -0.555745972890E+03    0.12261E-03   -0.18528E-05  2532   0.139E-02    0.341E-02
DAV:  13    -0.555745846533E+03    0.12636E-03   -0.54741E-06  2520   0.629E-03    0.319E-02
DAV:  14    -0.555745749701E+03    0.96832E-04   -0.16447E-06  2532   0.315E-03
  29 F= -.59407659E+03 E0= -.59353471E+03  d E =-.128730E-01  mag=     0.2359
       N       E                     dE             d eps       ncg     rms          rms(c)
DAV:   1    -0.555751828466E+03   -0.59819E-02   -0.24129E-01  4560   0.552E-01    0.103E-01
DAV:   2    -0.555751758664E+03    0.69801E-04   -0.46698E-03  4620   0.849E-02    0.165E-01
DAV:   3    -0.555752060277E+03   -0.30161E-03   -0.11913E-03  3204   0.126E-01    0.280E-01
DAV:   4    -0.555751348009E+03    0.71227E-03   -0.10867E-03  3186   0.126E-01    0.199E-01
DAV:   5    -0.555750950938E+03    0.39707E-03   -0.64082E-04  3120   0.787E-02    0.154E-01
DAV:   6    -0.555750652112E+03    0.29883E-03   -0.43448E-04  2856   0.635E-02    0.117E-01
DAV:   7    -0.555750280585E+03    0.37153E-03   -0.22118E-04  2640   0.505E-02    0.791E-02
DAV:   8    -0.555750058096E+03    0.22249E-03   -0.71875E-05  2568   0.298E-02    0.552E-02
DAV:   9    -0.555749887504E+03    0.17059E-03   -0.34336E-05  2544   0.172E-02    0.494E-02
DAV:  10    -0.555749517269E+03    0.37023E-03   -0.22290E-05  2544   0.145E-02    0.412E-02
DAV:  11    -0.555749313879E+03    0.20339E-03   -0.83405E-06  2526   0.889E-03    0.363E-02
DAV:  12    -0.555749253535E+03    0.60344E-04   -0.13635E-06  2532   0.249E-03
  30 F= -.59407849E+03 E0= -.59353669E+03  d E =-.189684E-02  mag=     0.2699
       N       E                     dE             d eps       ncg     rms          rms(c)
DAV:   1    -0.555772231660E+03   -0.22918E-01   -0.97297E+00  4464   0.360E+00    0.606E-01
DAV:   2    -0.555786472587E+03   -0.14241E-01   -0.17782E-01  4632   0.520E-01    0.888E-01
DAV:   3    -0.555810296722E+03   -0.23824E-01   -0.50864E-02  5280   0.799E-01    0.191E+00
DAV:   4    -0.555790831421E+03    0.19465E-01   -0.48404E-02  5220   0.839E-01    0.120E+00
DAV:   5    -0.555785267430E+03    0.55640E-02   -0.22775E-02  5232   0.471E-01    0.949E-01
DAV:   6    -0.555782474247E+03    0.27932E-02   -0.17607E-02  5112   0.384E-01    0.679E-01
DAV:   7    -0.555781137492E+03    0.13368E-02   -0.10719E-02  5148   0.330E-01    0.545E-01
DAV:   8    -0.555779626263E+03    0.15112E-02   -0.52336E-03  5106   0.232E-01    0.398E-01
DAV:   9    -0.555778743514E+03    0.88275E-03   -0.19997E-03  4824   0.130E-01    0.245E-01
DAV:  10    -0.555778256971E+03    0.48654E-03   -0.65841E-04  2868   0.806E-02    0.160E-01
DAV:  11    -0.555777798872E+03    0.45810E-03   -0.32340E-04  2736   0.621E-02    0.966E-02
DAV:  12    -0.555777490020E+03    0.30885E-03   -0.14748E-04  2682   0.421E-02    0.835E-02
DAV:  13    -0.555777218611E+03    0.27141E-03   -0.55914E-05  2580   0.238E-02    0.753E-02
DAV:  14    -0.555776716946E+03    0.50167E-03   -0.36751E-05  2538   0.206E-02    0.542E-02
DAV:  15    -0.555776473218E+03    0.24373E-03   -0.17394E-05  2466   0.121E-02    0.450E-02
DAV:  16    -0.555776348569E+03    0.12465E-03   -0.34463E-06  2526   0.489E-03    0.420E-02
DAV:  17    -0.555776511295E+03   -0.16273E-03   -0.85923E-07  2520   0.226E-03    0.427E-02
DAV:  18    -0.555776980199E+03   -0.46890E-03   -0.34191E-06  2544   0.584E-03    0.440E-02
DAV:  19    -0.555777742772E+03   -0.76257E-03   -0.11831E-05  2652   0.993E-03    0.483E-02
DAV:  20    -0.555780295696E+03   -0.25529E-02   -0.43803E-05  2820   0.187E-02    0.590E-02
DAV:  21    -0.555785306664E+03   -0.50110E-02   -0.13525E-04  3024   0.251E-02    0.841E-02
DAV:  22    -0.555787909403E+03   -0.26027E-02   -0.77269E-05  2844   0.205E-02    0.812E-02
DAV:  23    -0.555790685058E+03   -0.27757E-02   -0.79830E-05  2850   0.202E-02    0.710E-02
DAV:  24    -0.555793038949E+03   -0.23539E-02   -0.68589E-05  2844   0.190E-02    0.654E-02
DAV:  25    -0.555795480902E+03   -0.24420E-02   -0.92978E-05  2976   0.197E-02    0.528E-02
DAV:  26    -0.555796587837E+03   -0.11069E-02   -0.62014E-05  2880   0.195E-02    0.407E-02
DAV:  27    -0.555796834729E+03   -0.24689E-03   -0.31512E-05  2796   0.122E-02    0.365E-02
DAV:  28    -0.555796888458E+03   -0.53728E-04   -0.13142E-05  2592   0.935E-03
  31 F= -.59411531E+03 E0= -.59357426E+03  d E =-.368201E-01  mag=    -0.0264
       N       E                     dE             d eps       ncg     rms          rms(c)
DAV:   1    -0.554821689041E+03    0.97515E+00   -0.86260E+01  4482   0.920E+00    0.235E+00
DAV:   2    -0.554984533331E+03   -0.16284E+00   -0.23269E+00  4740   0.153E+00    0.244E+00
DAV:   3    -0.555901600203E+03   -0.91707E+00   -0.11017E+00  5862   0.386E+00    0.109E+01
DAV:   4    -0.554995630528E+03    0.90597E+00   -0.12877E+00  5808   0.370E+00    0.280E+00
DAV:   5    -0.554971732973E+03    0.23898E-01   -0.21484E-01  5532   0.153E+00    0.268E+00
DAV:   6    -0.554970679057E+03    0.10539E-02   -0.21575E-01  5160   0.134E+00    0.268E+00
DAV:   7    -0.554939697156E+03    0.30982E-01   -0.12654E-01  5190   0.109E+00    0.160E+00
DAV:   8    -0.554923093976E+03    0.16603E-01   -0.45823E-02  5100   0.688E-01    0.793E-01
DAV:   9    -0.554923138851E+03   -0.44875E-04   -0.22244E-02  5088   0.456E-01    0.840E-01
DAV:  10    -0.554922269469E+03    0.86938E-03   -0.16986E-02  5136   0.383E-01    0.704E-01
DAV:  11    -0.554919172967E+03    0.30965E-02   -0.69873E-03  5112   0.268E-01    0.304E-01
DAV:  12    -0.554918625818E+03    0.54715E-03   -0.18320E-03  4848   0.139E-01    0.164E-01
DAV:  13    -0.554918630532E+03   -0.47142E-05   -0.73404E-04  3564   0.874E-02
  32 F= -.59322252E+03 E0= -.59268352E+03  d E =0.892791E+00  mag=    -0.0263
       N       E                     dE             d eps       ncg     rms          rms(c)
DAV:   1    -0.555716130892E+03   -0.79751E+00   -0.34487E+01  4476   0.535E+00    0.149E+00
DAV:   2    -0.555824410928E+03   -0.10828E+00   -0.10088E+00  4914   0.138E+00    0.292E+00
DAV:   3    -0.555907409156E+03   -0.82998E-01   -0.34144E-01  5406   0.210E+00    0.439E+00
DAV:   4    -0.555776670324E+03    0.13074E+00   -0.16605E-01  5400   0.150E+00    0.180E+00
DAV:   5    -0.555760942734E+03    0.15728E-01   -0.85740E-02  5286   0.949E-01    0.147E+00
DAV:   6    -0.555768581891E+03   -0.76392E-02   -0.85877E-02  5190   0.891E-01    0.186E+00
DAV:   7    -0.555760595429E+03    0.79865E-02   -0.72891E-02  5172   0.820E-01    0.143E+00
DAV:   8    -0.555748548894E+03    0.12047E-01   -0.30828E-02  5184   0.576E-01    0.711E-01
DAV:   9    -0.555745629620E+03    0.29193E-02   -0.95564E-03  5112   0.324E-01    0.388E-01
DAV:  10    -0.555745454841E+03    0.17478E-03   -0.39523E-03  4980   0.214E-01    0.335E-01
DAV:  11    -0.555745007513E+03    0.44733E-03   -0.19570E-03  4794   0.155E-01    0.241E-01
DAV:  12    -0.555744738325E+03    0.26919E-03   -0.68240E-04  3228   0.860E-02    0.173E-01
DAV:  13    -0.555744665787E+03    0.72538E-04   -0.34592E-04  2676   0.536E-02
  33 F= -.59404995E+03 E0= -.59351060E+03  d E =-.827433E+00  mag=    -0.0280
       N       E                     dE             d eps       ncg     rms          rms(c)
DAV:   1    -0.555811497156E+03   -0.66759E-01   -0.20130E+00  4482   0.129E+00    0.366E-01
DAV:   2    -0.555827552732E+03   -0.16056E-01   -0.65264E-02  5160   0.503E-01    0.131E+00
DAV:   3    -0.555819333886E+03    0.82188E-02   -0.26614E-02  5346   0.594E-01    0.814E-01
DAV:   4    -0.555816780581E+03    0.25533E-02   -0.10625E-02  5334   0.361E-01    0.647E-01
DAV:   5    -0.555815373678E+03    0.14069E-02   -0.90461E-03  5232   0.266E-01    0.502E-01
DAV:   6    -0.555814254469E+03    0.11192E-02   -0.55676E-03  5244   0.229E-01    0.311E-01
DAV:   7    -0.555814351020E+03   -0.96551E-04   -0.32770E-03  5112   0.187E-01    0.327E-01
DAV:   8    -0.555813906956E+03    0.44406E-03   -0.20171E-03  4740   0.151E-01    0.243E-01
DAV:   9    -0.555813500875E+03    0.40608E-03   -0.79640E-04  3324   0.933E-02    0.799E-02
DAV:  10    -0.555813539227E+03   -0.38351E-04   -0.36178E-04  2748   0.571E-02
  34 F= -.59411909E+03 E0= -.59357939E+03  d E =-.691413E-01  mag=    -0.0303
       N       E                     dE             d eps       ncg     rms          rms(c)
DAV:   1    -0.555850727066E+03   -0.37226E-01   -0.13456E+00  4602   0.111E+00    0.332E-01
DAV:   2    -0.555854203535E+03   -0.34765E-02   -0.37348E-02  4620   0.267E-01    0.563E-01
DAV:   3    -0.555855151537E+03   -0.94800E-03   -0.12046E-02  5082   0.328E-01    0.666E-01
DAV:   4    -0.555867243313E+03   -0.12092E-01   -0.19881E-02  5718   0.524E-01    0.140E+00
DAV:   5    -0.555852807572E+03    0.14436E-01   -0.16134E-02  5742   0.465E-01    0.353E-01
DAV:   6    -0.555852619039E+03    0.18853E-03   -0.38870E-03  5250   0.197E-01    0.358E-01
DAV:   7    -0.555852254438E+03    0.36460E-03   -0.28740E-03  5004   0.161E-01    0.275E-01
DAV:   8    -0.555851934776E+03    0.31966E-03   -0.14782E-03  3840   0.123E-01    0.192E-01
DAV:   9    -0.555851681049E+03    0.25373E-03   -0.58494E-04  2934   0.798E-02    0.890E-02
DAV:  10    -0.555851661920E+03    0.19129E-04   -0.26233E-04  2676   0.499E-02
  35 F= -.59415668E+03 E0= -.59361720E+03  d E =-.375903E-01  mag=    -0.0333
       N       E                     dE             d eps       ncg     rms          rms(c)
DAV:   1    -0.555868871788E+03   -0.17191E-01   -0.86202E-01  4488   0.949E-01    0.239E-01
DAV:   2    -0.555870676275E+03   -0.18045E-02   -0.22125E-02  4614   0.207E-01    0.355E-01
DAV:   3    -0.555872462773E+03   -0.17865E-02   -0.65100E-03  5184   0.269E-01    0.603E-01
DAV:   4    -0.555874264498E+03   -0.18017E-02   -0.94872E-03  5310   0.365E-01    0.767E-01
DAV:   5    -0.555870309691E+03    0.39548E-02   -0.57444E-03  5268   0.265E-01    0.317E-01
DAV:   6    -0.555869946202E+03    0.36349E-03   -0.24353E-03  4932   0.150E-01    0.250E-01
DAV:   7    -0.555869792563E+03    0.15364E-03   -0.14289E-03  4176   0.120E-01    0.210E-01
DAV:   8    -0.555869557810E+03    0.23475E-03   -0.73392E-04  3060   0.882E-02    0.120E-01
DAV:   9    -0.555869457648E+03    0.10016E-03   -0.28227E-04  2778   0.581E-02    0.748E-02
DAV:  10    -0.555869428747E+03    0.28901E-04   -0.16766E-04  2604   0.414E-02
  36 F= -.59417292E+03 E0= -.59363362E+03  d E =-.162346E-01  mag=    -0.0370
       N       E                     dE             d eps       ncg     rms          rms(c)
DAV:   1    -0.555878017660E+03   -0.85600E-02   -0.49858E-01  4602   0.785E-01    0.161E-01
DAV:   2    -0.555880394801E+03   -0.23771E-02   -0.13253E-02  4800   0.218E-01    0.535E-01
DAV:   3    -0.555878777182E+03    0.16176E-02   -0.44297E-03  5004   0.191E-01    0.200E-01
DAV:   4    -0.555879943918E+03   -0.11667E-02   -0.21042E-03  3816   0.166E-01    0.436E-01
DAV:   5    -0.555879417914E+03    0.52600E-03   -0.33843E-03  4044   0.216E-01    0.356E-01
DAV:   6    -0.555878550725E+03    0.86719E-03   -0.12893E-03  3576   0.124E-01    0.158E-01
DAV:   7    -0.555878510373E+03    0.40353E-04   -0.74142E-04  3078   0.845E-02
  37 F= -.59417985E+03 E0= -.59364074E+03  d E =-.693557E-02  mag=    -0.0400
       N       E                     dE             d eps       ncg     rms          rms(c)
DAV:   1    -0.555896301233E+03   -0.17751E-01   -0.36109E+00  4464   0.220E+00    0.371E-01
DAV:   2    -0.555908712110E+03   -0.12411E-01   -0.73438E-02  4596   0.469E-01    0.112E+00
DAV:   3    -0.555906566258E+03    0.21459E-02   -0.24698E-02  5010   0.552E-01    0.912E-01
DAV:   4    -0.555903822065E+03    0.27442E-02   -0.14624E-02  5028   0.443E-01    0.743E-01
DAV:   5    -0.555902318136E+03    0.15039E-02   -0.10183E-02  5016   0.293E-01    0.590E-01
DAV:   6    -0.555900548117E+03    0.17700E-02   -0.64477E-03  5040   0.257E-01    0.339E-01
DAV:   7    -0.555900723288E+03   -0.17517E-03   -0.38970E-03  5076   0.196E-01    0.387E-01
DAV:   8    -0.555900155262E+03    0.56803E-03   -0.31913E-03  4656   0.164E-01    0.274E-01
DAV:   9    -0.555899685987E+03    0.46927E-03   -0.97222E-04  3456   0.954E-02    0.128E-01
DAV:  10    -0.555899581642E+03    0.10435E-03   -0.19396E-04  2616   0.460E-02    0.824E-02
DAV:  11    -0.555899521952E+03    0.59690E-04   -0.10592E-04  2592   0.341E-02
  38 F= -.59419440E+03 E0= -.59365601E+03  d E =-.145454E-01  mag=    -0.0457
       N       E                     dE             d eps       ncg     rms          rms(c)
DAV:   1    -0.555130470824E+03    0.76911E+00   -0.88415E+01  4494   0.100E+01    0.230E+00
DAV:   2    -0.555450411111E+03   -0.31994E+00   -0.24832E+00  4656   0.228E+00    0.478E+00
DAV:   3    -0.555738912719E+03   -0.28850E+00   -0.97815E-01  5322   0.361E+00    0.769E+00
DAV:   4    -0.555359954913E+03    0.37896E+00   -0.67122E-01  5340   0.285E+00    0.348E+00
DAV:   5    -0.555306998641E+03    0.52956E-01   -0.25556E-01  5328   0.154E+00    0.275E+00
DAV:   6    -0.555294941141E+03    0.12058E-01   -0.17243E-01  5208   0.122E+00    0.234E+00
DAV:   7    -0.555289807284E+03    0.51339E-02   -0.13359E-01  5190   0.114E+00    0.203E+00
DAV:   8    -0.555269080379E+03    0.20727E-01   -0.86385E-02  5154   0.950E-01    0.140E+00
DAV:   9    -0.555261871296E+03    0.72091E-02   -0.47084E-02  5124   0.649E-01    0.104E+00
DAV:  10    -0.555257981690E+03    0.38896E-02   -0.23871E-02  5136   0.464E-01    0.664E-01
DAV:  11    -0.555255354795E+03    0.26269E-02   -0.80490E-03  5118   0.301E-01    0.352E-01
DAV:  12    -0.555254350015E+03    0.10048E-02   -0.20496E-03  5064   0.162E-01    0.157E-01
DAV:  13    -0.555254227462E+03    0.12255E-03   -0.59271E-04  2994   0.746E-02    0.119E-01
DAV:  14    -0.555254208114E+03    0.19348E-04   -0.43066E-04  2796   0.632E-02
  39 F= -.59353383E+03 E0= -.59299762E+03  d E =0.660566E+00  mag=    -0.0541
       N       E                     dE             d eps       ncg     rms          rms(c)
DAV:   1    -0.555858752041E+03   -0.60452E+00   -0.39980E+01  4470   0.600E+00    0.157E+00
DAV:   2    -0.555950695117E+03   -0.91943E-01   -0.10818E+00  4788   0.119E+00    0.206E+00
DAV:   3    -0.556245543125E+03   -0.29485E+00   -0.43295E-01  5748   0.241E+00    0.651E+00
DAV:   4    -0.555985276699E+03    0.26027E+00   -0.44680E-01  5568   0.237E+00    0.310E+00
DAV:   5    -0.555932760410E+03    0.52516E-01   -0.16929E-01  5424   0.119E+00    0.187E+00
DAV:   6    -0.555925663053E+03    0.70974E-02   -0.87774E-02  5268   0.919E-01    0.155E+00
DAV:   7    -0.555918285000E+03    0.73781E-02   -0.54205E-02  5184   0.790E-01    0.116E+00
DAV:   8    -0.555912358055E+03    0.59269E-02   -0.29517E-02  5184   0.571E-01    0.888E-01
DAV:   9    -0.555907672304E+03    0.46858E-02   -0.12694E-02  5088   0.347E-01    0.413E-01
DAV:  10    -0.555906941222E+03    0.73108E-03   -0.41916E-03  5016   0.200E-01    0.287E-01
DAV:  11    -0.555907030042E+03   -0.88820E-04   -0.25968E-03  4740   0.155E-01    0.316E-01
DAV:  12    -0.555906403259E+03    0.62678E-03   -0.12459E-03  3564   0.112E-01    0.133E-01
DAV:  13    -0.555906303949E+03    0.99310E-04   -0.32022E-04  2616   0.526E-02
  40 F= -.59418249E+03 E0= -.59364680E+03  d E =-.648655E+00  mag=    -0.0630
       N       E                     dE             d eps       ncg     rms          rms(c)
DAV:   1    -0.555946612655E+03   -0.40209E-01   -0.53402E-01  4608   0.701E-01    0.193E-01
DAV:   2    -0.555948485706E+03   -0.18731E-02   -0.16742E-02  4956   0.196E-01    0.426E-01
DAV:   3    -0.555947781242E+03    0.70446E-03   -0.42279E-03  5022   0.186E-01    0.284E-01
DAV:   4    -0.555950172094E+03   -0.23909E-02   -0.42621E-03  4680   0.230E-01    0.625E-01
DAV:   5    -0.555948102437E+03    0.20697E-02   -0.51615E-03  4590   0.261E-01    0.357E-01
DAV:   6    -0.555947286185E+03    0.81625E-03   -0.19765E-03  4128   0.151E-01    0.203E-01
DAV:   7    -0.555947158191E+03    0.12799E-03   -0.10731E-03  3600   0.996E-02    0.171E-01
DAV:   8    -0.555947017662E+03    0.14053E-03   -0.57346E-04  2868   0.764E-02    0.127E-01
DAV:   9    -0.555946903676E+03    0.11399E-03   -0.26825E-04  2652   0.530E-02    0.659E-02
DAV:  10    -0.555946860228E+03    0.43448E-04   -0.95191E-05  2544   0.329E-02
  41 F= -.59422294E+03 E0= -.59368729E+03  d E =-.404541E-01  mag=    -0.0711
       N       E                     dE             d eps       ncg     rms          rms(c)
DAV:   1    -0.555991872325E+03   -0.44969E-01   -0.32869E+00  4476   0.179E+00    0.477E-01
DAV:   2    -0.555998037745E+03   -0.61654E-02   -0.89250E-02  4614   0.336E-01    0.544E-01
DAV:   3    -0.556024815984E+03   -0.26778E-01   -0.40075E-02  5724   0.703E-01    0.192E+00
DAV:   4    -0.556006185127E+03    0.18631E-01   -0.49234E-02  5682   0.802E-01    0.119E+00
DAV:   5    -0.555996894194E+03    0.92909E-02   -0.16935E-02  5640   0.403E-01    0.501E-01
DAV:   6    -0.555997073579E+03   -0.17938E-03   -0.83016E-03  5316   0.277E-01    0.532E-01
DAV:   7    -0.555995908598E+03    0.11650E-02   -0.54900E-03  5178   0.231E-01    0.366E-01
DAV:   8    -0.555995080212E+03    0.82839E-03   -0.21513E-03  4848   0.153E-01    0.184E-01
DAV:   9    -0.555994964838E+03    0.11537E-03   -0.96245E-04  3858   0.992E-02    0.159E-01
DAV:  10    -0.555994925329E+03    0.39509E-04   -0.80125E-04  2952   0.860E-02
  42 F= -.59426999E+03 E0= -.59373450E+03  d E =-.470515E-01  mag=    -0.0809
       N       E                     dE             d eps       ncg     rms          rms(c)
DAV:   1    -0.556001541056E+03   -0.65762E-02   -0.27731E-01  4608   0.601E-01    0.134E-01
DAV:   2    -0.556004456113E+03   -0.29151E-02   -0.94313E-03  4938   0.233E-01    0.602E-01
DAV:   3    -0.556003670995E+03    0.78512E-03   -0.65661E-03  5130   0.283E-01    0.492E-01
DAV:   4    -0.556001921215E+03    0.17498E-02   -0.22592E-03  3834   0.172E-01    0.159E-01
DAV:   5    -0.556001867706E+03    0.53508E-04   -0.77522E-04  3264   0.857E-02
  43 F= -.59427587E+03 E0= -.59374053E+03  d E =-.588204E-02  mag=    -0.0855
       N       E                     dE             d eps       ncg     rms          rms(c)
DAV:   1    -0.556023339272E+03   -0.21418E-01   -0.99911E+00  4476   0.368E+00    0.630E-01
DAV:   2    -0.556048868582E+03   -0.25529E-01   -0.20089E-01  4590   0.699E-01    0.147E+00
DAV:   3    -0.556053353974E+03   -0.44854E-02   -0.61222E-02  5016   0.832E-01    0.158E+00
DAV:   4    -0.556047208313E+03    0.61457E-02   -0.46985E-02  5028   0.798E-01    0.134E+00
DAV:   5    -0.556039208292E+03    0.80000E-02   -0.24392E-02  5052   0.506E-01    0.901E-01
DAV:   6    -0.556037029288E+03    0.21790E-02   -0.18443E-02  5046   0.421E-01    0.730E-01
DAV:   7    -0.556035564068E+03    0.14652E-02   -0.12574E-02  5034   0.338E-01    0.565E-01
DAV:   8    -0.556035108675E+03    0.45539E-03   -0.74540E-03  5064   0.271E-01    0.515E-01
DAV:   9    -0.556033503103E+03    0.16056E-02   -0.37225E-03  5046   0.188E-01    0.242E-01
DAV:  10    -0.556033118778E+03    0.38432E-03   -0.10604E-03  3888   0.993E-02    0.140E-01
DAV:  11    -0.556033024214E+03    0.94564E-04   -0.40198E-04  2772   0.621E-02
  44 F= -.59429993E+03 E0= -.59376641E+03  d E =-.240553E-01  mag=    -0.0977
       N       E                     dE             d eps       ncg     rms          rms(c)
DAV:   1    -0.555609457221E+03    0.42366E+00   -0.79991E+01  4464   0.975E+00    0.213E+00
DAV:   2    -0.555799387179E+03   -0.18993E+00   -0.19984E+00  4692   0.181E+00    0.329E+00
DAV:   3    -0.556264827396E+03   -0.46544E+00   -0.92544E-01  5658   0.338E+00    0.824E+00
DAV:   4    -0.555788373749E+03    0.47645E+00   -0.76244E-01  5568   0.297E+00    0.301E+00
DAV:   5    -0.555747233341E+03    0.41140E-01   -0.19672E-01  5460   0.143E+00    0.241E+00
DAV:   6    -0.555748741920E+03   -0.15086E-02   -0.16180E-01  5268   0.118E+00    0.246E+00
DAV:   7    -0.555730293039E+03    0.18449E-01   -0.11730E-01  5184   0.104E+00    0.170E+00
DAV:   8    -0.555711010156E+03    0.19283E-01   -0.51017E-02  5190   0.731E-01    0.835E-01
DAV:   9    -0.555710617662E+03    0.39249E-03   -0.25042E-02  5058   0.477E-01    0.850E-01
DAV:  10    -0.555710009802E+03    0.60786E-03   -0.18665E-02  5100   0.408E-01    0.739E-01
DAV:  11    -0.555706403184E+03    0.36066E-02   -0.78899E-03  5052   0.290E-01    0.302E-01
DAV:  12    -0.555705714050E+03    0.68913E-03   -0.16381E-03  4878   0.138E-01    0.150E-01
DAV:  13    -0.555705649395E+03    0.64655E-04   -0.54485E-04  2988   0.727E-02
  45 F= -.59396379E+03 E0= -.59343264E+03  d E =0.336138E+00  mag=    -0.1142
       N       E                     dE             d eps       ncg     rms          rms(c)
DAV:   1    -0.556037270086E+03   -0.33156E+00   -0.24129E+01  4464   0.471E+00    0.126E+00
DAV:   2    -0.556078412884E+03   -0.41143E-01   -0.65925E-01  4668   0.889E-01    0.137E+00
DAV:   3    -0.556165062490E+03   -0.86650E-01   -0.20813E-01  5412   0.142E+00    0.372E+00
DAV:   4    -0.556189411528E+03   -0.24349E-01   -0.29886E-01  5598   0.196E+00    0.408E+00
DAV:   5    -0.556075616785E+03    0.11379E+00   -0.18160E-01  5622   0.143E+00    0.142E+00
DAV:   6    -0.556068821992E+03    0.67948E-02   -0.51014E-02  5166   0.744E-01    0.112E+00
DAV:   7    -0.556064932549E+03    0.38894E-02   -0.30233E-02  5136   0.577E-01    0.922E-01
DAV:   8    -0.556060056768E+03    0.48758E-02   -0.15617E-02  5130   0.407E-01    0.523E-01
DAV:   9    -0.556059292019E+03    0.76475E-03   -0.73759E-03  5046   0.276E-01    0.418E-01
DAV:  10    -0.556059140288E+03    0.15173E-03   -0.48562E-03  5022   0.221E-01    0.403E-01
DAV:  11    -0.556058273290E+03    0.86700E-03   -0.26225E-03  4620   0.161E-01    0.234E-01
DAV:  12    -0.556057902815E+03    0.37048E-03   -0.73434E-04  3372   0.885E-02    0.108E-01
DAV:  13    -0.556057835921E+03    0.66894E-04   -0.24808E-04  2622   0.480E-02
  46 F= -.59431601E+03 E0= -.59378605E+03  d E =-.352215E+00  mag=    -0.1322
       N       E                     dE             d eps       ncg     rms          rms(c)
DAV:   1    -0.556110774743E+03   -0.52872E-01   -0.17652E+00  4596   0.132E+00    0.349E-01
DAV:   2    -0.556115987185E+03   -0.52124E-02   -0.50417E-02  4692   0.304E-01    0.643E-01
DAV:   3    -0.556116911369E+03   -0.92418E-03   -0.14315E-02  5106   0.363E-01    0.733E-01
DAV:   4    -0.556127499792E+03   -0.10588E-01   -0.22288E-02  5586   0.534E-01    0.137E+00
DAV:   5    -0.556113933479E+03    0.13566E-01   -0.19507E-02  5784   0.479E-01    0.383E-01
DAV:   6    -0.556113496078E+03    0.43740E-03   -0.42046E-03  5292   0.207E-01    0.354E-01
DAV:   7    -0.556113298490E+03    0.19759E-03   -0.32403E-03  5064   0.176E-01    0.336E-01
DAV:   8    -0.556112565021E+03    0.73347E-03   -0.17049E-03  4224   0.130E-01    0.148E-01
DAV:   9    -0.556112422315E+03    0.14271E-03   -0.49586E-04  2868   0.755E-02    0.109E-01
DAV:  10    -0.556112337234E+03    0.85081E-04   -0.30698E-04  2688   0.573E-02
  47 F= -.59437014E+03 E0= -.59384021E+03  d E =-.541388E-01  mag=    -0.1486
       N       E                     dE             d eps       ncg     rms          rms(c)
DAV:   1    -0.556125780255E+03   -0.13358E-01   -0.80854E-01  4584   0.949E-01    0.219E-01
DAV:   2    -0.556127946488E+03   -0.21662E-02   -0.20949E-02  4596   0.216E-01    0.415E-01
DAV:   3    -0.556127528962E+03    0.41753E-03   -0.48119E-03  5028   0.212E-01    0.349E-01
DAV:   4    -0.556131350465E+03   -0.38215E-02   -0.67508E-03  4914   0.294E-01    0.786E-01
DAV:   5    -0.556127278457E+03    0.40720E-02   -0.67208E-03  4740   0.289E-01    0.346E-01
DAV:   6    -0.556126758403E+03    0.52005E-03   -0.26364E-03  4320   0.162E-01    0.242E-01
DAV:   7    -0.556126514056E+03    0.24435E-03   -0.12922E-03  4032   0.113E-01    0.196E-01
DAV:   8    -0.556126252954E+03    0.26110E-03   -0.64542E-04  3048   0.885E-02    0.114E-01
DAV:   9    -0.556126090204E+03    0.16275E-03   -0.20575E-04  2652   0.541E-02    0.615E-02
DAV:  10    -0.556126026880E+03    0.63324E-04   -0.10721E-04  2532   0.337E-02
  48 F= -.59438343E+03 E0= -.59385366E+03  d E =-.132842E-01  mag=    -0.1659
       N       E                     dE             d eps       ncg     rms          rms(c)
DAV:   1    -0.556133349203E+03   -0.72590E-02   -0.48705E-01  4608   0.807E-01    0.144E-01
DAV:   2    -0.556135156021E+03   -0.18068E-02   -0.11210E-02  4650   0.190E-01    0.460E-01
DAV:   3    -0.556134571264E+03    0.58476E-03   -0.40829E-03  5016   0.208E-01    0.338E-01
DAV:   4    -0.556134465918E+03    0.10535E-03   -0.26583E-03  3702   0.184E-01    0.337E-01
DAV:   5    -0.556133766416E+03    0.69950E-03   -0.13192E-03  3672   0.117E-01    0.185E-01
DAV:   6    -0.556133570448E+03    0.19597E-03   -0.74663E-04  3228   0.939E-02    0.153E-01
DAV:   7    -0.556133443447E+03    0.12700E-03   -0.57045E-04  2928   0.755E-02    0.140E-01
DAV:   8    -0.556133276172E+03    0.16727E-03   -0.39016E-04  2676   0.610E-02    0.989E-02
DAV:   9    -0.556133128927E+03    0.14724E-03   -0.13893E-04  2532   0.408E-02    0.510E-02
DAV:  10    -0.556133056517E+03    0.72411E-04   -0.40256E-05  2532   0.217E-02
  49 F= -.59439001E+03 E0= -.59386050E+03  d E =-.657995E-02  mag=    -0.1846
       N       E                     dE             d eps       ncg     rms          rms(c)
DAV:   1    -0.556149088497E+03   -0.15960E-01   -0.14925E+01  4464   0.453E+00    0.771E-01
DAV:   2    -0.556187332907E+03   -0.38244E-01   -0.29165E-01  4596   0.828E-01    0.172E+00
DAV:   3    -0.556194458605E+03   -0.71257E-02   -0.93672E-02  5040   0.104E+00    0.190E+00
DAV:   4    -0.556179499908E+03    0.14959E-01   -0.60908E-02  5184   0.889E-01    0.134E+00
DAV:   5    -0.556173299305E+03    0.62006E-02   -0.29675E-02  5184   0.553E-01    0.108E+00
DAV:   6    -0.556169618524E+03    0.36808E-02   -0.21116E-02  5100   0.444E-01    0.806E-01
DAV:   7    -0.556169486036E+03    0.13249E-03   -0.17042E-02  5154   0.403E-01    0.761E-01
DAV:   8    -0.556166896849E+03    0.25892E-02   -0.10388E-02  5136   0.333E-01    0.531E-01
DAV:   9    -0.556165388742E+03    0.15081E-02   -0.37031E-03  5052   0.183E-01    0.316E-01
DAV:  10    -0.556164847202E+03    0.54154E-03   -0.12211E-03  4128   0.105E-01    0.191E-01
DAV:  11    -0.556164587993E+03    0.25921E-03   -0.53236E-04  2904   0.759E-02    0.114E-01
DAV:  12    -0.556164481407E+03    0.10659E-03   -0.24938E-04  2712   0.516E-02    0.953E-02
DAV:  13    -0.556164385299E+03    0.96109E-04   -0.85610E-05  2484   0.298E-02
  50 F= -.59441957E+03 E0= -.59389179E+03  d E =-.295638E-01  mag=    -0.2135
       N       E                     dE             d eps       ncg     rms          rms(c)
DAV:   1    -0.555157067227E+03    0.10074E+01   -0.81092E+01  4464   0.922E+00    0.214E+00
DAV:   2    -0.555355354299E+03   -0.19829E+00   -0.20985E+00  4716   0.180E+00    0.305E+00
DAV:   3    -0.555789899157E+03   -0.43454E+00   -0.80945E-01  5544   0.319E+00    0.791E+00
DAV:   4    -0.555371326433E+03    0.41857E+00   -0.75252E-01  5400   0.296E+00    0.341E+00
DAV:   5    -0.555324003806E+03    0.47323E-01   -0.21590E-01  5388   0.146E+00    0.280E+00
DAV:   6    -0.555309764552E+03    0.14239E-01   -0.17971E-01  5286   0.126E+00    0.236E+00
DAV:   7    -0.555307273811E+03    0.24907E-02   -0.14832E-01  5178   0.120E+00    0.220E+00
DAV:   8    -0.555280158360E+03    0.27115E-01   -0.76329E-02  5136   0.933E-01    0.126E+00
DAV:   9    -0.555272615098E+03    0.75433E-02   -0.27798E-02  5064   0.522E-01    0.832E-01
DAV:  10    -0.555270426555E+03    0.21885E-02   -0.13541E-02  5040   0.362E-01    0.639E-01
DAV:  11    -0.555268417331E+03    0.20092E-02   -0.65387E-03  4992   0.260E-01    0.374E-01
DAV:  12    -0.555267603583E+03    0.81375E-03   -0.24360E-03  4944   0.166E-01    0.206E-01
DAV:  13    -0.555267412375E+03    0.19121E-03   -0.75653E-04  3708   0.879E-02    0.130E-01
DAV:  14    -0.555267277844E+03    0.13453E-03   -0.27549E-04  2664   0.588E-02    0.979E-02
DAV:  15    -0.555267152421E+03    0.12542E-03   -0.16447E-04  2622   0.438E-02    0.649E-02
DAV:  16    -0.555267095903E+03    0.56519E-04   -0.94758E-05  2532   0.292E-02
  51 F= -.59352740E+03 E0= -.59300376E+03  d E =0.892177E+00  mag=    -0.2515
       N       E                     dE             d eps       ncg     rms          rms(c)
DAV:   1    -0.556083252838E+03   -0.81610E+00   -0.32436E+01  4464   0.546E+00    0.136E+00
DAV:   2    -0.556145946259E+03   -0.62693E-01   -0.90455E-01  4740   0.902E-01    0.116E+00
DAV:   3    -0.556169340909E+03   -0.23395E-01   -0.11026E-01  5046   0.993E-01    0.230E+00
DAV:   4    -0.556159010045E+03    0.10331E-01   -0.13041E-01  5100   0.110E+00    0.207E+00
DAV:   5    -0.556224501437E+03   -0.65491E-01   -0.15750E-01  5406   0.144E+00    0.355E+00
DAV:   6    -0.556163257496E+03    0.61244E-01   -0.20817E-01  5466   0.155E+00    0.205E+00
DAV:   7    -0.556138106175E+03    0.25151E-01   -0.72909E-02  5268   0.883E-01    0.120E+00
DAV:   8    -0.556130380697E+03    0.77255E-02   -0.24209E-02  5280   0.494E-01    0.723E-01
DAV:   9    -0.556127567801E+03    0.28129E-02   -0.82548E-03  5034   0.282E-01    0.421E-01
DAV:  10    -0.556126583167E+03    0.98463E-03   -0.31738E-03  4968   0.173E-01    0.252E-01
DAV:  11    -0.556126259534E+03    0.32363E-03   -0.13214E-03  3996   0.119E-01    0.174E-01
DAV:  12    -0.556126091914E+03    0.16762E-03   -0.46429E-04  2940   0.747E-02    0.127E-01
DAV:  13    -0.556125945875E+03    0.14604E-03   -0.22318E-04  2592   0.488E-02    0.999E-02
DAV:  14    -0.556125728525E+03    0.21735E-03   -0.15886E-04  2580   0.442E-02    0.794E-02
DAV:  15    -0.556125592981E+03    0.13554E-03   -0.10275E-04  2502   0.323E-02    0.585E-02
DAV:  16    -0.556125502404E+03    0.90577E-04   -0.38494E-05  2460   0.183E-02
  52 F= -.59438410E+03 E0= -.59385917E+03  d E =-.856700E+00  mag=    -0.2960
       N       E                     dE             d eps       ncg     rms          rms(c)
DAV:   1    -0.556170859637E+03   -0.45267E-01   -0.13971E+00  4476   0.114E+00    0.284E-01
DAV:   2    -0.556174365601E+03   -0.35060E-02   -0.36572E-02  4812   0.236E-01    0.478E-01
DAV:   3    -0.556178963565E+03   -0.45980E-02   -0.12756E-02  5448   0.392E-01    0.909E-01
DAV:   4    -0.556173970028E+03    0.49935E-02   -0.10168E-02  5352   0.351E-01    0.532E-01
DAV:   5    -0.556172508760E+03    0.14613E-02   -0.48084E-03  5052   0.204E-01    0.300E-01
DAV:   6    -0.556172639428E+03   -0.13067E-03   -0.29510E-03  5046   0.176E-01    0.327E-01
DAV:   7    -0.556172016712E+03    0.62272E-03   -0.20592E-03  4914   0.153E-01    0.250E-01
DAV:   8    -0.556171585591E+03    0.43112E-03   -0.10397E-03  3264   0.101E-01    0.143E-01
DAV:   9    -0.556171415925E+03    0.16967E-03   -0.34287E-04  2682   0.555E-02    0.801E-02
DAV:  10    -0.556171228041E+03    0.18788E-03   -0.11474E-04  2520   0.347E-02    0.613E-02
DAV:  11    -0.556171057150E+03    0.17089E-03   -0.62457E-05  2526   0.270E-02    0.500E-02
DAV:  12    -0.556170907789E+03    0.14936E-03   -0.22442E-05  2520   0.164E-02    0.330E-02
DAV:  13    -0.556170815244E+03    0.92545E-04   -0.62019E-06  2454   0.728E-03
  53 F= -.59442963E+03 E0= -.59390468E+03  d E =-.455380E-01  mag=    -0.3351
       N       E                     dE             d eps       ncg     rms          rms(c)
DAV:   1    -0.556193130941E+03   -0.22223E-01   -0.60775E-01  4488   0.780E-01    0.207E-01
DAV:   2    -0.556193701319E+03   -0.57038E-03   -0.14658E-02  4620   0.114E-01    0.158E-01
DAV:   3    -0.556197183577E+03   -0.34823E-02   -0.51461E-03  4944   0.241E-01    0.718E-01
DAV:   4    -0.556193890635E+03    0.32929E-02   -0.73928E-03  4860   0.299E-01    0.383E-01
DAV:   5    -0.556193333941E+03    0.55669E-03   -0.24455E-03  3804   0.158E-01    0.262E-01
DAV:   6    -0.556193010013E+03    0.32393E-03   -0.14950E-03  4050   0.117E-01    0.198E-01
DAV:   7    -0.556192616743E+03    0.39327E-03   -0.70142E-04  3024   0.923E-02    0.143E-01
DAV:   8    -0.556192398328E+03    0.21841E-03   -0.31472E-04  2628   0.543E-02    0.740E-02
DAV:   9    -0.556192220891E+03    0.17744E-03   -0.13223E-04  2574   0.358E-02    0.672E-02
DAV:  10    -0.556191984536E+03    0.23636E-03   -0.81490E-05  2544   0.291E-02    0.604E-02
DAV:  11    -0.556191811001E+03    0.17354E-03   -0.29647E-05  2538   0.184E-02    0.420E-02
DAV:  12    -0.556191683010E+03    0.12799E-03   -0.58638E-06  2520   0.813E-03    0.362E-02
DAV:  13    -0.556191595825E+03    0.87185E-04   -0.15092E-06  2454   0.318E-03
  54 F= -.59445096E+03 E0= -.59392609E+03  d E =-.213306E-01  mag=    -0.3762
       N       E                     dE             d eps       ncg     rms          rms(c)
DAV:   1    -0.556210383200E+03   -0.18700E-01   -0.11867E+00  4464   0.115E+00    0.258E-01
DAV:   2    -0.556211760693E+03   -0.13775E-02   -0.26249E-02  4620   0.177E-01    0.280E-01
DAV:   3    -0.556221676641E+03   -0.99159E-02   -0.13734E-02  5664   0.408E-01    0.118E+00
DAV:   4    -0.556211482741E+03    0.10194E-01   -0.14243E-02  5526   0.412E-01    0.401E-01
DAV:   5    -0.556211264037E+03    0.21870E-03   -0.45597E-03  5052   0.206E-01    0.346E-01
DAV:   6    -0.556210853401E+03    0.41064E-03   -0.26197E-03  4986   0.149E-01    0.278E-01
DAV:   7    -0.556210266330E+03    0.58707E-03   -0.13048E-03  3756   0.118E-01    0.179E-01
DAV:   8    -0.556209909835E+03    0.35649E-03   -0.49090E-04  2916   0.763E-02    0.914E-02
DAV:   9    -0.556209763844E+03    0.14599E-03   -0.22712E-04  2676   0.502E-02    0.941E-02
DAV:  10    -0.556209431671E+03    0.33217E-03   -0.16758E-04  2580   0.424E-02    0.817E-02
DAV:  11    -0.556209187678E+03    0.24399E-03   -0.90727E-05  2538   0.302E-02    0.536E-02
DAV:  12    -0.556209045667E+03    0.14201E-03   -0.24877E-05  2568   0.156E-02    0.392E-02
DAV:  13    -0.556208902541E+03    0.14313E-03   -0.66959E-06  2514   0.787E-03    0.374E-02
DAV:  14    -0.556208799625E+03    0.10292E-03   -0.20656E-06  2520   0.374E-03    0.370E-02
DAV:  15    -0.556208798125E+03    0.15001E-05   -0.40724E-07  2484   0.948E-04
  55 F= -.59446914E+03 E0= -.59394460E+03  d E =-.181780E-01  mag=    -0.4247
       N       E                     dE             d eps       ncg     rms          rms(c)
DAV:   1    -0.556215770040E+03   -0.69704E-02   -0.80052E-01  4494   0.100E+00    0.174E-01
DAV:   2    -0.556216371521E+03   -0.60148E-03   -0.15412E-02  4608   0.136E-01    0.183E-01
DAV:   3    -0.556216470361E+03   -0.98840E-04   -0.20879E-03  4956   0.137E-01    0.275E-01
DAV:   4    -0.556216552479E+03   -0.82117E-04   -0.26641E-03  4398   0.160E-01    0.362E-01
DAV:   5    -0.556216733800E+03   -0.18132E-03   -0.31639E-03  3744   0.199E-01    0.419E-01
DAV:   6    -0.556215577165E+03    0.11566E-02   -0.27972E-03  3582   0.182E-01    0.244E-01
DAV:   7    -0.556215158732E+03    0.41843E-03   -0.98484E-04  2964   0.963E-02    0.153E-01
DAV:   8    -0.556214755515E+03    0.40322E-03   -0.35055E-04  2682   0.640E-02    0.912E-02
DAV:   9    -0.556214584334E+03    0.17118E-03   -0.15001E-04  2628   0.391E-02    0.709E-02
DAV:  10    -0.556214242938E+03    0.34140E-03   -0.96705E-05  2550   0.314E-02    0.701E-02
DAV:  11    -0.556213883884E+03    0.35905E-03   -0.49060E-05  2556   0.239E-02    0.496E-02
DAV:  12    -0.556213718151E+03    0.16573E-03   -0.12800E-05  2544   0.118E-02    0.415E-02
DAV:  13    -0.556213609278E+03    0.10887E-03   -0.27449E-06  2508   0.423E-03    0.404E-02
DAV:  14    -0.556213663334E+03   -0.54055E-04   -0.63398E-07  2484   0.133E-03
  56 F= -.59447510E+03 E0= -.59395088E+03  d E =-.595467E-02  mag=    -0.4732
       N       E                     dE             d eps       ncg     rms          rms(c)
DAV:   1    -0.556218754731E+03   -0.51455E-02   -0.19287E+00  4476   0.161E+00    0.265E-01
DAV:   2    -0.556221565181E+03   -0.28104E-02   -0.35693E-02  4596   0.250E-01    0.446E-01
DAV:   3    -0.556224197811E+03   -0.26326E-02   -0.99705E-03  5040   0.336E-01    0.729E-01
DAV:   4    -0.556221473527E+03    0.27243E-02   -0.87818E-03  5100   0.334E-01    0.522E-01
DAV:   5    -0.556220630726E+03    0.84280E-03   -0.45219E-03  5124   0.204E-01    0.428E-01
DAV:   6    -0.556219703356E+03    0.92737E-03   -0.33053E-03  4980   0.169E-01    0.289E-01
DAV:   7    -0.556219314984E+03    0.38837E-03   -0.21686E-03  4704   0.142E-01    0.249E-01
DAV:   8    -0.556218666163E+03    0.64882E-03   -0.10254E-03  3378   0.107E-01    0.170E-01
DAV:   9    -0.556218391979E+03    0.27418E-03   -0.33385E-04  2712   0.566E-02    0.113E-01
DAV:  10    -0.556218119529E+03    0.27245E-03   -0.13380E-04  2526   0.363E-02    0.775E-02
DAV:  11    -0.556217725836E+03    0.39369E-03   -0.66096E-05  2604   0.271E-02    0.583E-02
DAV:  12    -0.556217499081E+03    0.22676E-03   -0.26704E-05  2544   0.164E-02    0.527E-02
DAV:  13    -0.556217292610E+03    0.20647E-03   -0.72728E-06  2508   0.791E-03    0.496E-02
DAV:  14    -0.556217081565E+03    0.21104E-03   -0.20653E-06  2478   0.423E-03    0.462E-02
DAV:  15    -0.556217179707E+03   -0.98142E-04   -0.76006E-07  2520   0.212E-03
  57 F= -.59448112E+03 E0= -.59395746E+03  d E =-.602203E-02  mag=    -0.5279
       N       E                     dE             d eps       ncg     rms          rms(c)
DAV:   1    -0.556115282759E+03    0.10180E+00   -0.67135E+01  4464   0.950E+00    0.184E+00
DAV:   2    -0.556250659511E+03   -0.13538E+00   -0.13306E+00  4608   0.152E+00    0.270E+00
DAV:   3    -0.556628162856E+03   -0.37750E+00   -0.73367E-01  5436   0.294E+00    0.727E+00
DAV:   4    -0.556280838513E+03    0.34732E+00   -0.65209E-01  5340   0.281E+00    0.320E+00
DAV:   5    -0.556228632755E+03    0.52206E-01   -0.13894E-01  5340   0.124E+00    0.218E+00
DAV:   6    -0.556220868612E+03    0.77641E-02   -0.97697E-02  5208   0.929E-01    0.192E+00
DAV:   7    -0.556219629441E+03    0.12392E-02   -0.96885E-02  5226   0.927E-01    0.179E+00
DAV:   8    -0.556202592916E+03    0.17037E-01   -0.49005E-02  5184   0.741E-01    0.105E+00
DAV:   9    -0.556197819360E+03    0.47736E-02   -0.16890E-02  5028   0.397E-01    0.737E-01
DAV:  10    -0.556195701581E+03    0.21178E-02   -0.92787E-03  5004   0.299E-01    0.543E-01
DAV:  11    -0.556194126796E+03    0.15748E-02   -0.45901E-03  5040   0.219E-01    0.297E-01
DAV:  12    -0.556193774985E+03    0.35181E-03   -0.14555E-03  4686   0.122E-01    0.211E-01
DAV:  13    -0.556193499526E+03    0.27546E-03   -0.47501E-04  2820   0.696E-02    0.156E-01
DAV:  14    -0.556193005013E+03    0.49451E-03   -0.20300E-04  2676   0.536E-02    0.834E-02
DAV:  15    -0.556192750767E+03    0.25425E-03   -0.99353E-05  2646   0.339E-02    0.677E-02
DAV:  16    -0.556192494259E+03    0.25651E-03   -0.78369E-05  2592   0.263E-02    0.707E-02
DAV:  17    -0.556192062763E+03    0.43150E-03   -0.43580E-05  2604   0.210E-02    0.543E-02
DAV:  18    -0.556191823370E+03    0.23939E-03   -0.11583E-05  2550   0.113E-02    0.486E-02
DAV:  19    -0.556191763231E+03    0.60139E-04   -0.24741E-06  2472   0.328E-03
  58 F= -.59447378E+03 E0= -.59395360E+03  d E =0.733985E-02  mag=    -0.6163
       N       E                     dE             d eps       ncg     rms          rms(c)
DAV:   1    -0.554928043911E+03    0.12638E+01   -0.99995E+01  4464   0.975E+00    0.254E+00
DAV:   2    -0.555113371616E+03   -0.18533E+00   -0.27347E+00  4902   0.150E+00    0.183E+00
DAV:   3    -0.555120242755E+03   -0.68711E-02   -0.21232E-01  5040   0.117E+00    0.256E+00
DAV:   4    -0.555121346680E+03   -0.11039E-02   -0.21324E-01  5076   0.147E+00    0.281E+00
DAV:   5    -0.555174436742E+03   -0.53090E-01   -0.25516E-01  5070   0.162E+00    0.373E+00
DAV:   6    -0.555442762846E+03   -0.26833E+00   -0.52951E-01  5646   0.277E+00    0.690E+00
DAV:   7    -0.555089272844E+03    0.35349E+00   -0.46157E-01  5508   0.222E+00    0.160E+00
DAV:   8    -0.555071158454E+03    0.18114E-01   -0.64830E-02  5124   0.793E-01    0.968E-01
DAV:   9    -0.555068904988E+03    0.22535E-02   -0.27924E-02  5004   0.497E-01    0.833E-01
DAV:  10    -0.555066197368E+03    0.27076E-02   -0.14356E-02  4998   0.361E-01    0.547E-01
DAV:  11    -0.555064101463E+03    0.20959E-02   -0.47187E-03  4956   0.221E-01    0.257E-01
DAV:  12    -0.555063588565E+03    0.51290E-03   -0.11611E-03  4434   0.114E-01    0.188E-01
DAV:  13    -0.555063089757E+03    0.49881E-03   -0.63924E-04  3006   0.860E-02    0.171E-01
DAV:  14    -0.555062495939E+03    0.59382E-03   -0.43243E-04  2826   0.662E-02    0.129E-01
DAV:  15    -0.555062160497E+03    0.33544E-03   -0.19517E-04  2598   0.437E-02    0.101E-01
DAV:  16    -0.555061686698E+03    0.47380E-03   -0.10857E-04  2628   0.315E-02    0.991E-02
DAV:  17    -0.555061118265E+03    0.56843E-03   -0.61572E-05  2628   0.252E-02    0.692E-02
DAV:  18    -0.555060835861E+03    0.28240E-03   -0.18173E-05  2490   0.136E-02    0.589E-02
DAV:  19    -0.555060724906E+03    0.11095E-03   -0.40200E-06  2490   0.461E-03    0.570E-02
DAV:  20    -0.555060951069E+03   -0.22616E-03   -0.12044E-06  2520   0.264E-03    0.582E-02
DAV:  21    -0.555061636737E+03   -0.68567E-03   -0.43634E-06  2592   0.657E-03    0.600E-02
DAV:  22    -0.555063902971E+03   -0.22662E-02   -0.21159E-05  2694   0.133E-02    0.623E-02
DAV:  23    -0.555067288091E+03   -0.33851E-02   -0.47256E-05  2808   0.183E-02    0.607E-02
DAV:  24    -0.555070619519E+03   -0.33314E-02   -0.63046E-05  2796   0.193E-02    0.592E-02
DAV:  25    -0.555074276860E+03   -0.36573E-02   -0.77710E-05  2856   0.201E-02    0.716E-02
DAV:  26    -0.555078816196E+03   -0.45393E-02   -0.11791E-04  2904   0.241E-02    0.822E-02
DAV:  27    -0.555085870886E+03   -0.70547E-02   -0.30735E-04  3264   0.335E-02    0.811E-02
DAV:  28    -0.555093438703E+03   -0.75678E-02   -0.44214E-04  4008   0.402E-02    0.670E-02
DAV:  29    -0.555096582916E+03   -0.31442E-02   -0.16418E-04  2964   0.293E-02    0.481E-02
DAV:  30    -0.555097604432E+03   -0.10215E-02   -0.71826E-05  2868   0.182E-02    0.393E-02
DAV:  31    -0.555097779490E+03   -0.17506E-03   -0.20949E-05  2664   0.958E-03    0.379E-02
DAV:  32    -0.555097840574E+03   -0.61084E-04   -0.13676E-05  2724   0.895E-03
  59 F= -.59338813E+03 E0= -.59286726E+03  d E =0.108565E+01  mag=     0.0203
       N       E                     dE             d eps       ncg     rms          rms(c)
DAV:   1    -0.556083523668E+03   -0.98574E+00   -0.21181E+01  4512   0.430E+00    0.132E+00
DAV:   2    -0.556111093932E+03   -0.27570E-01   -0.49437E-01  4920   0.652E-01    0.103E+00
DAV:   3    -0.556475111240E+03   -0.36402E+00   -0.43684E-01  6108   0.224E+00    0.679E+00
[...]
DAV:   3    -0.556508938529E+03    0.42477E-02   -0.12763E-02  5166   0.362E-01    0.538E-01
DAV:   4    -0.556506979627E+03    0.19589E-02   -0.35858E-03  4416   0.202E-01    0.208E-01
DAV:   5    -0.556506760366E+03    0.21926E-03   -0.80268E-04  2916   0.931E-02    0.119E-01
DAV:   6    -0.556506674734E+03    0.85633E-04   -0.41515E-04  2766   0.621E-02
 174 F= -.59492329E+03 E0= -.59440811E+03  d E =-.118053E-02  mag=     0.2637
       N       E                     dE             d eps       ncg     rms          rms(c)
DAV:   1    -0.556507041749E+03   -0.28138E-03   -0.93873E-02  4536   0.339E-01    0.107E-01
DAV:   2    -0.556509100097E+03   -0.20583E-02   -0.41792E-03  5100   0.194E-01    0.552E-01
DAV:   3    -0.556507788777E+03    0.13113E-02   -0.47527E-03  4716   0.231E-01    0.361E-01
DAV:   4    -0.556506894961E+03    0.89382E-03   -0.15985E-03  3072   0.134E-01    0.139E-01
DAV:   5    -0.556506841774E+03    0.53188E-04   -0.44688E-04  2670   0.630E-02
 175 F= -.59492301E+03 E0= -.59440765E+03  d E =0.277835E-03  mag=     0.2754
       N       E                     dE             d eps       ncg     rms          rms(c)
DAV:   1    -0.556070742249E+03    0.43615E+00   -0.11020E+02  4464   0.128E+01    0.171E+00
DAV:   2    -0.556249159861E+03   -0.17842E+00   -0.18624E+00  4716   0.214E+00    0.245E+00
DAV:   3    -0.556237681909E+03    0.11478E-01   -0.21973E-01  4920   0.143E+00    0.214E+00
DAV:   4    -0.556261581956E+03   -0.23900E-01   -0.18632E-01  5016   0.130E+00    0.296E+00
DAV:   5    -0.556327655970E+03   -0.66074E-01   -0.25449E-01  5130   0.172E+00    0.402E+00
DAV:   6    -0.556256957651E+03    0.70698E-01   -0.28402E-01  5220   0.184E+00    0.271E+00
DAV:   7    -0.556220658355E+03    0.36299E-01   -0.11001E-01  5070   0.107E+00    0.164E+00
DAV:   8    -0.556213965034E+03    0.66933E-02   -0.63332E-02  5124   0.777E-01    0.143E+00
DAV:   9    -0.556201484599E+03    0.12480E-01   -0.32870E-02  5124   0.544E-01    0.590E-01
DAV:  10    -0.556200936268E+03    0.54833E-03   -0.10318E-02  4980   0.301E-01    0.528E-01
DAV:  11    -0.556199697191E+03    0.12391E-02   -0.47600E-03  4944   0.218E-01    0.334E-01
DAV:  12    -0.556199016471E+03    0.68072E-03   -0.20102E-03  4572   0.148E-01    0.194E-01
DAV:  13    -0.556198840691E+03    0.17578E-03   -0.82981E-04  3558   0.936E-02    0.157E-01
DAV:  14    -0.556198778920E+03    0.61772E-04   -0.58279E-04  2856   0.741E-02
 176 F= -.59463098E+03 E0= -.59411396E+03  d E =0.292028E+00  mag=     0.3100
       N       E                     dE             d eps       ncg     rms          rms(c)
DAV:   1    -0.556090862265E+03    0.10798E+00   -0.60983E+01  4464   0.824E+00    0.183E+00
DAV:   2    -0.556205469722E+03   -0.11461E+00   -0.16177E+00  4716   0.135E+00    0.172E+00
DAV:   3    -0.556579662193E+03   -0.37419E+00   -0.54237E-01  5748   0.244E+00    0.724E+00
DAV:   4    -0.556249422293E+03    0.33024E+00   -0.67495E-01  5574   0.277E+00    0.290E+00
DAV:   5    -0.556210543592E+03    0.38879E-01   -0.19268E-01  5508   0.142E+00    0.238E+00
DAV:   6    -0.556195290364E+03    0.15253E-01   -0.13354E-01  5268   0.104E+00    0.174E+00
DAV:   7    -0.556181661687E+03    0.13629E-01   -0.56782E-02  5280   0.823E-01    0.116E+00
DAV:   8    -0.556176227818E+03    0.54339E-02   -0.33819E-02  5166   0.623E-01    0.979E-01
DAV:   9    -0.556174252227E+03    0.19756E-02   -0.22936E-02  5064   0.446E-01    0.773E-01
DAV:  10    -0.556171785264E+03    0.24670E-02   -0.99734E-03  5046   0.333E-01    0.477E-01
DAV:  11    -0.556170529870E+03    0.12554E-02   -0.35039E-03  5028   0.204E-01    0.311E-01
DAV:  12    -0.556170029843E+03    0.50003E-03   -0.11898E-03  3996   0.107E-01    0.195E-01
DAV:  13    -0.556169799753E+03    0.23009E-03   -0.50590E-04  2742   0.700E-02    0.139E-01
DAV:  14    -0.556169621436E+03    0.17832E-03   -0.35202E-04  2634   0.565E-02    0.922E-02
DAV:  15    -0.556169487421E+03    0.13401E-03   -0.15366E-04  2610   0.406E-02    0.706E-02
DAV:  16    -0.556169382692E+03    0.10473E-03   -0.69335E-05  2556   0.260E-02    0.590E-02
DAV:  17    -0.556169255737E+03    0.12695E-03   -0.33354E-05  2556   0.178E-02    0.463E-02
DAV:  18    -0.556169127816E+03    0.12792E-03   -0.17486E-05  2484   0.137E-02    0.319E-02
DAV:  19    -0.556169046851E+03    0.80965E-04   -0.63365E-06  2478   0.786E-03
 177 F= -.59460109E+03 E0= -.59408534E+03  d E =0.298948E-01  mag=     0.3615
       N       E                     dE             d eps       ncg     rms          rms(c)
DAV:   1    -0.556396273981E+03   -0.22715E+00   -0.13853E+01  4464   0.383E+00    0.853E-01
DAV:   2    -0.556420501897E+03   -0.24228E-01   -0.37608E-01  4668   0.609E-01    0.712E-01
DAV:   3    -0.556447015538E+03   -0.26514E-01   -0.61545E-02  5268   0.810E-01    0.200E+00
DAV:   4    -0.556448662386E+03   -0.16468E-02   -0.11239E-01  5334   0.114E+00    0.213E+00
DAV:   5    -0.556422803402E+03    0.25859E-01   -0.61432E-02  5400   0.794E-01    0.124E+00
DAV:   6    -0.556419059701E+03    0.37437E-02   -0.38348E-02  5220   0.545E-01    0.903E-01
DAV:   7    -0.556415146460E+03    0.39132E-02   -0.16231E-02  5160   0.415E-01    0.570E-01
DAV:   8    -0.556413561959E+03    0.15845E-02   -0.69045E-03  5220   0.269E-01    0.418E-01
DAV:   9    -0.556412998375E+03    0.56358E-03   -0.39784E-03  5040   0.184E-01    0.307E-01
DAV:  10    -0.556412451039E+03    0.54734E-03   -0.17997E-03  4674   0.142E-01    0.193E-01
DAV:  11    -0.556412139677E+03    0.31136E-03   -0.66860E-04  3216   0.900E-02    0.135E-01
DAV:  12    -0.556411978851E+03    0.16083E-03   -0.21984E-04  2616   0.474E-02    0.106E-01
DAV:  13    -0.556411822300E+03    0.15655E-03   -0.11132E-04  2580   0.329E-02    0.813E-02
DAV:  14    -0.556411615570E+03    0.20673E-03   -0.71812E-05  2556   0.284E-02    0.488E-02
DAV:  15    -0.556411444192E+03    0.17138E-03   -0.37485E-05  2598   0.197E-02    0.434E-02
DAV:  16    -0.556411335169E+03    0.10902E-03   -0.14183E-05  2544   0.110E-02    0.388E-02
DAV:  17    -0.556411207948E+03    0.12722E-03   -0.62367E-06  2520   0.740E-03    0.331E-02
DAV:  18    -0.556411100115E+03    0.10783E-03   -0.17287E-06  2484   0.402E-03    0.305E-02
DAV:  19    -0.556411119471E+03   -0.19357E-04   -0.37068E-07  2436   0.102E-03
 178 F= -.59484250E+03 E0= -.59432629E+03  d E =-.241407E+00  mag=     0.4143
       N       E                     dE             d eps       ncg     rms          rms(c)
DAV:   1    -0.556427688429E+03   -0.16588E-01   -0.34558E-01  4494   0.707E-01    0.117E-01
DAV:   2    -0.556427947894E+03   -0.25946E-03   -0.75275E-03  4668   0.116E-01    0.137E-01
DAV:   3    -0.556428666469E+03   -0.71857E-03   -0.16183E-03  3552   0.135E-01    0.354E-01
DAV:   4    -0.556427934202E+03    0.73227E-03   -0.23371E-03  3252   0.167E-01    0.248E-01
DAV:   5    -0.556427499599E+03    0.43460E-03   -0.73927E-04  2964   0.914E-02    0.162E-01
DAV:   6    -0.556427287275E+03    0.21232E-03   -0.50755E-04  2838   0.690E-02    0.126E-01
DAV:   7    -0.556427030532E+03    0.25674E-03   -0.35554E-04  2634   0.614E-02    0.113E-01
DAV:   8    -0.556426785034E+03    0.24550E-03   -0.21161E-04  2574   0.475E-02    0.812E-02
DAV:   9    -0.556426622525E+03    0.16251E-03   -0.81100E-05  2448   0.299E-02    0.512E-02
DAV:  10    -0.556426466041E+03    0.15648E-03   -0.37901E-05  2472   0.190E-02    0.471E-02
DAV:  11    -0.556426271956E+03    0.19408E-03   -0.21152E-05  2478   0.146E-02    0.384E-02
DAV:  12    -0.556426112850E+03    0.15911E-03   -0.64619E-06  2484   0.850E-03    0.355E-02
DAV:  13    -0.556426029181E+03    0.83669E-04   -0.13268E-06  2430   0.309E-03
 179 F= -.59485694E+03 E0= -.59434087E+03  d E =-.144471E-01  mag=     0.4552
       N       E                     dE             d eps       ncg     rms          rms(c)
DAV:   1    -0.556456671169E+03   -0.30558E-01   -0.66081E+00  4464   0.316E+00    0.443E-01
DAV:   2    -0.556468966436E+03   -0.12295E-01   -0.11530E-01  4656   0.552E-01    0.826E-01
DAV:   3    -0.556480589805E+03   -0.11623E-01   -0.39843E-02  4980   0.665E-01    0.149E+00
DAV:   4    -0.556465197797E+03    0.15392E-01   -0.24033E-02  5016   0.530E-01    0.545E-01
DAV:   5    -0.556466521983E+03   -0.13242E-02   -0.11411E-02  5046   0.323E-01    0.710E-01
DAV:   6    -0.556464255018E+03    0.22670E-02   -0.78774E-03  4980   0.270E-01    0.412E-01
DAV:   7    -0.556464312581E+03   -0.57563E-04   -0.49659E-03  5040   0.228E-01    0.440E-01
DAV:   8    -0.556463270667E+03    0.10419E-02   -0.36834E-03  4980   0.194E-01    0.308E-01
DAV:   9    -0.556462658160E+03    0.61251E-03   -0.16259E-03  4260   0.124E-01    0.151E-01
DAV:  10    -0.556462511459E+03    0.14670E-03   -0.64262E-04  2832   0.790E-02    0.139E-01
DAV:  11    -0.556462219069E+03    0.29239E-03   -0.33976E-04  2622   0.608E-02    0.945E-02
DAV:  12    -0.556461959936E+03    0.25913E-03   -0.12204E-04  2514   0.399E-02    0.596E-02
DAV:  13    -0.556461818792E+03    0.14114E-03   -0.38945E-05  2532   0.206E-02    0.439E-02
DAV:  14    -0.556461670212E+03    0.14858E-03   -0.14780E-05  2460   0.116E-02    0.471E-02
DAV:  15    -0.556461498299E+03    0.17191E-03   -0.89347E-06  2430   0.843E-03    0.463E-02
DAV:  16    -0.556461328547E+03    0.16975E-03   -0.33649E-06  2460   0.521E-03    0.448E-02
DAV:  17    -0.556461288301E+03    0.40246E-04   -0.76836E-07  2472   0.177E-03
 180 F= -.59489024E+03 E0= -.59437468E+03  d E =-.332993E-01  mag=     0.5118
       N       E                     dE             d eps       ncg     rms          rms(c)
DAV:   1    -0.556471523644E+03   -0.10195E-01   -0.26203E+00  4464   0.198E+00    0.271E-01
DAV:   2    -0.556479768818E+03   -0.82452E-02   -0.45302E-02  4668   0.422E-01    0.894E-01
DAV:   3    -0.556476050765E+03    0.37181E-02   -0.17526E-02  4902   0.439E-01    0.613E-01
DAV:   4    -0.556473903730E+03    0.21470E-02   -0.48712E-03  4920   0.234E-01    0.279E-01
DAV:   5    -0.556474490587E+03   -0.58686E-03   -0.38844E-03  4932   0.188E-01    0.439E-01
DAV:   6    -0.556473414746E+03    0.10758E-02   -0.29706E-03  4878   0.162E-01    0.243E-01
DAV:   7    -0.556473313631E+03    0.10111E-03   -0.18071E-03  4704   0.135E-01    0.268E-01
DAV:   8    -0.556472705754E+03    0.60788E-03   -0.14079E-03  3912   0.120E-01    0.207E-01
DAV:   9    -0.556472264007E+03    0.44175E-03   -0.60635E-04  2808   0.778E-02    0.941E-02
DAV:  10    -0.556472112189E+03    0.15182E-03   -0.18984E-04  2604   0.411E-02    0.714E-02
DAV:  11    -0.556471851173E+03    0.26102E-03   -0.86635E-05  2490   0.300E-02    0.609E-02
DAV:  12    -0.556471569790E+03    0.28138E-03   -0.38404E-05  2478   0.210E-02    0.503E-02
DAV:  13    -0.556471396754E+03    0.17304E-03   -0.13603E-05  2502   0.118E-02    0.427E-02
DAV:  14    -0.556471285363E+03    0.11139E-03   -0.36144E-06  2448   0.524E-03    0.419E-02
DAV:  15    -0.556471234360E+03    0.51003E-04   -0.84959E-07  2460   0.188E-03
 181 F= -.59489896E+03 E0= -.59438372E+03  d E =-.871436E-02  mag=     0.5670
       N       E                     dE             d eps       ncg     rms          rms(c)
DAV:   1    -0.556473017505E+03   -0.17321E-02   -0.38497E+00  4464   0.240E+00    0.310E-01
DAV:   2    -0.556478832948E+03   -0.58154E-02   -0.62467E-02  4650   0.407E-01    0.515E-01
DAV:   3    -0.556485170706E+03   -0.63378E-02   -0.17458E-02  5022   0.445E-01    0.106E+00
DAV:   4    -0.556476960894E+03    0.82098E-02   -0.12983E-02  4896   0.391E-01    0.368E-01
DAV:   5    -0.556477710175E+03   -0.74928E-03   -0.44415E-03  4908   0.214E-01    0.473E-01
DAV:   6    -0.556476518389E+03    0.11918E-02   -0.34278E-03  4920   0.180E-01    0.283E-01
DAV:   7    -0.556476429023E+03    0.89366E-04   -0.24860E-03  4992   0.160E-01    0.316E-01
DAV:   8    -0.556475637000E+03    0.79202E-03   -0.18364E-03  4464   0.139E-01    0.229E-01
DAV:   9    -0.556475128195E+03    0.50880E-03   -0.77114E-04  2964   0.882E-02    0.101E-01
DAV:  10    -0.556474886605E+03    0.24159E-03   -0.28560E-04  2652   0.523E-02    0.994E-02
DAV:  11    -0.556474580516E+03    0.30609E-03   -0.16421E-04  2526   0.391E-02    0.738E-02
DAV:  12    -0.556474276901E+03    0.30361E-03   -0.52381E-05  2514   0.249E-02    0.531E-02
DAV:  13    -0.556474069193E+03    0.20771E-03   -0.12410E-05  2478   0.123E-02    0.463E-02
DAV:  14    -0.556473879214E+03    0.18998E-03   -0.33811E-06  2484   0.499E-03    0.458E-02
DAV:  15    -0.556473831750E+03    0.47464E-04   -0.81656E-07  2436   0.164E-03
 182 F= -.59489977E+03 E0= -.59438478E+03  d E =-.816984E-03  mag=     0.6277
       N       E                     dE             d eps       ncg     rms          rms(c)
DAV:   1    -0.556476545440E+03   -0.26662E-02   -0.80806E-01  4476   0.108E+00    0.167E-01
DAV:   2    -0.556477163434E+03   -0.61799E-03   -0.15756E-02  4704   0.172E-01    0.173E-01
DAV:   3    -0.556478344650E+03   -0.11812E-02   -0.31165E-03  5028   0.185E-01    0.471E-01
DAV:   4    -0.556477480681E+03    0.86397E-03   -0.47584E-03  4554   0.237E-01    0.404E-01
DAV:   5    -0.556476257423E+03    0.12233E-02   -0.18977E-03  3534   0.144E-01    0.191E-01
DAV:   6    -0.556475916093E+03    0.34133E-03   -0.86118E-04  3324   0.898E-02    0.153E-01
DAV:   7    -0.556475398727E+03    0.51737E-03   -0.62395E-04  2862   0.802E-02    0.160E-01
DAV:   8    -0.556474878020E+03    0.52071E-03   -0.38017E-04  2652   0.641E-02    0.101E-01
DAV:   9    -0.556474591411E+03    0.28661E-03   -0.13210E-04  2580   0.368E-02    0.644E-02
DAV:  10    -0.556474289553E+03    0.30186E-03   -0.69748E-05  2508   0.244E-02    0.673E-02
DAV:  11    -0.556473881577E+03    0.40798E-03   -0.36044E-05  2556   0.191E-02    0.548E-02
DAV:  12    -0.556473673679E+03    0.20790E-03   -0.75980E-06  2460   0.863E-03    0.514E-02
DAV:  13    -0.556473590084E+03    0.83596E-04   -0.12715E-06  2436   0.248E-03
 183 F= -.59489900E+03 E0= -.59438397E+03  d E =0.778092E-03  mag=     0.6837
       N       E                     dE             d eps       ncg     rms          rms(c)
DAV:   1    -0.556474837934E+03   -0.11643E-02   -0.12019E-01  4476   0.421E-01    0.834E-02
DAV:   2    -0.556475998646E+03   -0.11607E-02   -0.38764E-03  5040   0.167E-01    0.475E-01
DAV:   3    -0.556474059229E+03    0.19394E-02   -0.24532E-03  4614   0.168E-01    0.123E-01
DAV:   4    -0.556474068882E+03   -0.96524E-05   -0.32230E-04  2634   0.538E-02
 184 F= -.59489960E+03 E0= -.59438450E+03  d E =-.602824E-03  mag=     0.7032
       N       E                     dE             d eps       ncg     rms          rms(c)
DAV:   1    -0.556474345488E+03   -0.28626E-03   -0.12393E-01  4578   0.434E-01    0.105E-01
DAV:   2    -0.556476586212E+03   -0.22407E-02   -0.57018E-03  5064   0.219E-01    0.634E-01
DAV:   3    -0.556474253110E+03    0.23331E-02   -0.57894E-03  4950   0.253E-01    0.346E-01
DAV:   4    -0.556473528905E+03    0.72421E-03   -0.12998E-03  2934   0.121E-01    0.126E-01
DAV:   5    -0.556473306115E+03    0.22279E-03   -0.29313E-04  2616   0.532E-02    0.858E-02
DAV:   6    -0.556472691216E+03    0.61490E-03   -0.12371E-04  2586   0.357E-02    0.790E-02
DAV:   7    -0.556472106936E+03    0.58428E-03   -0.11048E-04  2622   0.363E-02    0.770E-02
DAV:   8    -0.556471566496E+03    0.54044E-03   -0.10358E-04  2544   0.313E-02    0.813E-02
DAV:   9    -0.556470918900E+03    0.64760E-03   -0.64748E-05  2610   0.248E-02    0.638E-02
DAV:  10    -0.556470552763E+03    0.36614E-03   -0.19614E-05  2502   0.143E-02    0.552E-02
DAV:  11    -0.556470421917E+03    0.13085E-03   -0.36487E-06  2466   0.468E-03    0.539E-02
DAV:  12    -0.556470600716E+03   -0.17880E-03   -0.13647E-06  2472   0.274E-03    0.551E-02
DAV:  13    -0.556471324387E+03   -0.72367E-03   -0.53682E-06  2544   0.687E-03    0.565E-02
DAV:  14    -0.556472489653E+03   -0.11653E-02   -0.96912E-06  2598   0.980E-03    0.590E-02
DAV:  15    -0.556475785806E+03   -0.32962E-02   -0.38549E-05  2772   0.162E-02    0.621E-02
DAV:  16    -0.556479895048E+03   -0.41092E-02   -0.73324E-05  2844   0.205E-02    0.613E-02
DAV:  17    -0.556483075643E+03   -0.31806E-02   -0.67961E-05  2856   0.195E-02    0.662E-02
DAV:  18    -0.556487844333E+03   -0.47687E-02   -0.13269E-04  2940   0.251E-02    0.800E-02
DAV:  19    -0.556493771758E+03   -0.59274E-02   -0.24713E-04  3090   0.320E-02    0.849E-02
DAV:  20    -0.556500133133E+03   -0.63614E-02   -0.30804E-04  3096   0.359E-02    0.765E-02
DAV:  21    -0.556505657430E+03   -0.55243E-02   -0.37959E-04  3600   0.353E-02    0.615E-02
DAV:  22    -0.556506645168E+03   -0.98774E-03   -0.11256E-04  2808   0.245E-02    0.479E-02
DAV:  23    -0.556506633398E+03    0.11770E-04   -0.46814E-05  2820   0.157E-02
 185 F= -.59493201E+03 E0= -.59441670E+03  d E =-.324095E-01  mag=    -0.0675
       N       E                     dE             d eps       ncg     rms          rms(c)
DAV:   1    -0.556507382091E+03   -0.73692E-03   -0.52602E-01  4650   0.880E-01    0.986E-02
DAV:   2    -0.556508430196E+03   -0.10481E-02   -0.78727E-03  4704   0.156E-01    0.227E-01
DAV:   3    -0.556508497326E+03   -0.67130E-04   -0.16169E-03  4584   0.129E-01    0.242E-01
DAV:   4    -0.556508627561E+03   -0.13024E-03   -0.14313E-03  2922   0.130E-01    0.263E-01
DAV:   5    -0.556508215067E+03    0.41249E-03   -0.91036E-04  2880   0.102E-01    0.121E-01
DAV:   6    -0.556508154978E+03    0.60089E-04   -0.19885E-04  2658   0.476E-02
 186 F= -.59493273E+03 E0= -.59441713E+03  d E =-.724710E-03  mag=    -0.0672
       N       E                     dE             d eps       ncg     rms          rms(c)
DAV:   1    -0.556508140024E+03    0.75043E-04   -0.66272E-01  4554   0.990E-01    0.145E-01
DAV:   2    -0.556512586207E+03   -0.44462E-02   -0.14199E-02  4812   0.282E-01    0.713E-01
DAV:   3    -0.556510709043E+03    0.18772E-02   -0.86125E-03  4920   0.319E-01    0.484E-01
DAV:   4    -0.556509170723E+03    0.15383E-02   -0.31679E-03  4482   0.186E-01    0.185E-01
DAV:   5    -0.556509122444E+03    0.48280E-04   -0.81304E-04  3090   0.851E-02
 187 F= -.59493258E+03 E0= -.59441702E+03  d E =0.152457E-03  mag=    -0.0674
       N       E                     dE             d eps       ncg     rms          rms(c)
DAV:   1    -0.556508900652E+03    0.27007E-03   -0.24555E-01  4596   0.604E-01    0.103E-01
DAV:   2    -0.556511308993E+03   -0.24083E-02   -0.79052E-03  4956   0.217E-01    0.552E-01
DAV:   3    -0.556509430143E+03    0.18788E-02   -0.40716E-03  5010   0.195E-01    0.161E-01
DAV:   4    -0.556509575101E+03   -0.14496E-03   -0.96767E-04  2796   0.103E-01    0.213E-01
DAV:   5    -0.556509318627E+03    0.25647E-03   -0.67497E-04  2676   0.889E-02    0.114E-01
DAV:   6    -0.556509232008E+03    0.86619E-04   -0.14527E-04  2604   0.395E-02
 188 F= -.59493317E+03 E0= -.59441760E+03  d E =-.591389E-03  mag=    -0.0681
       N       E                     dE             d eps       ncg     rms          rms(c)
DAV:   1    -0.556509514618E+03   -0.19599E-03   -0.14400E-02  4572   0.148E-01    0.469E-02
DAV:   2    -0.556510462932E+03   -0.94831E-03   -0.14936E-03  3792   0.120E-01    0.364E-01
DAV:   3    -0.556509837984E+03    0.62495E-03   -0.18755E-03  3072   0.145E-01    0.206E-01
DAV:   4    -0.556509515765E+03    0.32222E-03   -0.37400E-04  2724   0.668E-02    0.408E-02
DAV:   5    -0.556509509061E+03    0.67033E-05   -0.72226E-05  2562   0.234E-02
 189 F= -.59493318E+03 E0= -.59441758E+03  d E =-.822747E-05  mag=    -0.0689
       N       E                     dE             d eps       ncg     rms          rms(c)
DAV:   1    -0.556509651620E+03   -0.13586E-03   -0.38650E-03  4620   0.776E-02    0.326E-02
DAV:   2    -0.556509892743E+03   -0.24112E-03   -0.47200E-04  2790   0.698E-02    0.197E-01
DAV:   3    -0.556509670882E+03    0.22186E-03   -0.43475E-04  2712   0.684E-02    0.774E-02
DAV:   4    -0.556509632636E+03    0.38246E-04   -0.85478E-05  2538   0.309E-02
 190 F= -.59493317E+03 E0= -.59441754E+03  d E =0.653513E-05  mag=    -0.0695
