       N       E                     dE             d eps       ncg     rms          rms(c)
DAV:   1     0.617936577755E+04    0.61794E+04   -0.34224E+05  4272   0.127E+03
DAV:   2     0.342382325034E+02   -0.61451E+04   -0.56695E+04  5256   0.273E+02
DAV:   3    -0.440160983093E+03   -0.47440E+03   -0.42723E+03  4800   0.725E+01
DAV:   4    -0.459358867601E+03   -0.19198E+02   -0.17919E+02  5292   0.141E+01
DAV:   5    -0.459754314865E+03   -0.39545E+00   -0.39354E+00  5124   0.234E+00    0.648E+01
DAV:   6    -0.440368214675E+03    0.19386E+02   -0.69386E+01  4536   0.141E+01    0.329E+01
DAV:   7    -0.493002521973E+03   -0.52634E+02   -0.62011E+01  4800   0.364E+01    0.673E+01
DAV:   8    -0.511405596737E+03   -0.18403E+02   -0.59928E+01  5340   0.365E+01    0.691E+01
DAV:   9    -0.442282776414E+03    0.69123E+02   -0.47981E+01  5640   0.292E+01    0.245E+01
DAV:  10    -0.453365263066E+03   -0.11082E+02   -0.35292E+01  4674   0.226E+01    0.370E+01
DAV:  11    -0.444676581649E+03    0.86887E+01   -0.16919E+01  4488   0.146E+01    0.252E+01
DAV:  12    -0.440258472831E+03    0.44181E+01   -0.58981E+00  4542   0.889E+00    0.156E+01
DAV:  13    -0.439003526239E+03    0.12549E+01   -0.24954E+00  4488   0.517E+00    0.108E+01
DAV:  14    -0.438503694978E+03    0.49983E+00   -0.10840E+00  4524   0.321E+00    0.799E+00
DAV:  15    -0.438237057368E+03    0.26664E+00   -0.47915E-01  4524   0.206E+00    0.548E+00
DAV:  16    -0.438110779013E+03    0.12628E+00   -0.16458E-01  4524   0.132E+00    0.384E+00
DAV:  17    -0.438063460521E+03    0.47318E-01   -0.16949E-01  4692   0.152E+00    0.332E+00
DAV:  18    -0.438047840813E+03    0.15620E-01   -0.21137E-01  4668   0.151E+00    0.291E+00
DAV:  19    -0.438032039800E+03    0.15801E-01   -0.16469E-01  4572   0.143E+00    0.271E+00
DAV:  20    -0.438007336183E+03    0.24704E-01   -0.15105E-01  4620   0.124E+00    0.235E+00
DAV:  21    -0.438009471774E+03   -0.21356E-02   -0.62503E-02  4596   0.727E-01    0.198E+00
DAV:  22    -0.438014947225E+03   -0.54755E-02   -0.13644E-02  4404   0.363E-01    0.183E+00
DAV:  23    -0.438011538020E+03    0.34092E-02   -0.55118E-03  4488   0.246E-01    0.145E+00
DAV:  24    -0.438006284235E+03    0.52538E-02   -0.13411E-02  4548   0.414E-01    0.947E-01
DAV:  25    -0.438004101599E+03    0.21826E-02   -0.16356E-02  4512   0.421E-01    0.710E-01
DAV:  26    -0.438013955504E+03   -0.98539E-02   -0.77768E-03  4584   0.305E-01    0.117E+00
DAV:  27    -0.438012817668E+03    0.11378E-02   -0.50343E-03  4500   0.283E-01    0.523E-01
DAV:  28    -0.438024551654E+03   -0.11734E-01   -0.34869E-03  4470   0.187E-01    0.378E-01
DAV:  29    -0.438035024873E+03   -0.10473E-01   -0.15297E-03  4494   0.118E-01    0.348E-01
DAV:  30    -0.438050837312E+03   -0.15812E-01   -0.84620E-04  4200   0.821E-02    0.307E-01
DAV:  31    -0.438062639104E+03   -0.11802E-01   -0.68057E-04  3828   0.829E-02    0.297E-01
DAV:  32    -0.438072660338E+03   -0.10021E-01   -0.46863E-04  3222   0.791E-02    0.145E-01
DAV:  33    -0.438084984887E+03   -0.12325E-01   -0.39563E-04  3528   0.583E-02    0.109E-01
DAV:  34    -0.438103009745E+03   -0.18025E-01   -0.38453E-04  3582   0.435E-02    0.980E-02
DAV:  35    -0.438118743752E+03   -0.15734E-01   -0.28294E-04  3432   0.414E-02    0.104E-01
DAV:  36    -0.438127592986E+03   -0.88492E-02   -0.16288E-04  2940   0.417E-02    0.179E-01
DAV:  37    -0.438134114223E+03   -0.65212E-02   -0.91151E-05  2844   0.255E-02    0.128E-01
DAV:  38    -0.438137295382E+03   -0.31812E-02   -0.27207E-05  2628   0.989E-03    0.118E-01
DAV:  39    -0.438134122961E+03    0.31724E-02   -0.27508E-05  2514   0.203E-02    0.169E-01
DAV:  40    -0.438131670003E+03    0.24530E-02   -0.12413E-05  2532   0.953E-03    0.154E-01
DAV:  41    -0.438127146126E+03    0.45239E-02   -0.20406E-05  2550   0.128E-02    0.131E-01
DAV:  42    -0.438119942454E+03    0.72037E-02   -0.52562E-05  2736   0.223E-02    0.940E-02
DAV:  43    -0.438107911916E+03    0.12031E-01   -0.12883E-04  2856   0.378E-02    0.102E-01
DAV:  44    -0.438097435955E+03    0.10476E-01   -0.85711E-05  2670   0.322E-02    0.840E-02
DAV:  45    -0.438083715567E+03    0.13720E-01   -0.90348E-05  2682   0.266E-02    0.888E-02
DAV:  46    -0.438073029813E+03    0.10686E-01   -0.80890E-05  2622   0.247E-02    0.957E-02
DAV:  47    -0.438058103331E+03    0.14926E-01   -0.32648E-04  3138   0.623E-02    0.221E-01
DAV:  48    -0.438052944059E+03    0.51593E-02   -0.22790E-04  3240   0.319E-02    0.263E-01
DAV:  49    -0.438054002811E+03   -0.10588E-02   -0.15672E-04  3150   0.260E-02    0.238E-01
DAV:  50    -0.438059134808E+03   -0.51320E-02   -0.10579E-04  2676   0.316E-02    0.182E-01
DAV:  51    -0.438066291470E+03   -0.71567E-02   -0.17503E-04  2916   0.429E-02    0.919E-02
DAV:  52    -0.438077048929E+03   -0.10757E-01   -0.21958E-04  2976   0.512E-02    0.100E-01
DAV:  53    -0.438098952338E+03   -0.21903E-01   -0.59905E-04  3450   0.893E-02    0.358E-01
DAV:  54    -0.438105299616E+03   -0.63473E-02   -0.15835E-04  2772   0.277E-02    0.339E-01
DAV:  55    -0.438122695019E+03   -0.17395E-01   -0.11337E-03  3396   0.145E-01    0.127E-01
DAV:  56    -0.438128487258E+03   -0.57922E-02   -0.37719E-04  3048   0.808E-02    0.127E-01
DAV:  57    -0.438149117814E+03   -0.20631E-01   -0.24824E-04  3330   0.274E-02    0.175E-01
DAV:  58    -0.438156291938E+03   -0.71741E-02   -0.10458E-04  2736   0.396E-02    0.679E-02
DAV:  59    -0.438165316849E+03   -0.90249E-02   -0.29514E-04  2946   0.685E-02    0.158E-01
DAV:  60    -0.438170524836E+03   -0.52080E-02   -0.81604E-05  2652   0.203E-02    0.134E-01
DAV:  61    -0.438174903220E+03   -0.43784E-02   -0.36898E-05  2586   0.196E-02    0.905E-02
DAV:  62    -0.438177545724E+03   -0.26425E-02   -0.22477E-05  2616   0.126E-02    0.930E-02
DAV:  63    -0.438180713768E+03   -0.31680E-02   -0.94937E-05  2592   0.406E-02    0.364E-02
DAV:  64    -0.438182139941E+03   -0.14262E-02   -0.42681E-05  2628   0.148E-02    0.711E-02
DAV:  65    -0.438182627811E+03   -0.48787E-03   -0.97393E-06  2388   0.995E-03    0.470E-02
DAV:  66    -0.438182449005E+03    0.17881E-03   -0.52277E-06  2532   0.808E-03    0.275E-02
DAV:  67    -0.438183208554E+03   -0.75955E-03   -0.33637E-06  2496   0.538E-03    0.328E-02
DAV:  68    -0.438184804927E+03   -0.15964E-02   -0.72573E-05  2544   0.369E-02    0.832E-02
DAV:  69    -0.438185385348E+03   -0.58042E-03   -0.21726E-05  2580   0.759E-03    0.883E-02
DAV:  70    -0.438185688250E+03   -0.30290E-03   -0.57504E-06  2502   0.767E-03    0.676E-02
DAV:  71    -0.438185650500E+03    0.37750E-04   -0.21748E-06  2280   0.431E-03
   1 F= -.47505119E+03 E0= -.47449583E+03  d E =-.475051E+03  mag=     0.0087
       N       E                     dE             d eps       ncg     rms          rms(c)
DAV:   1    -0.438199475355E+03   -0.13787E-01   -0.57325E-02  4302   0.281E-01    0.359E-02
DAV:   2    -0.438201347264E+03   -0.18719E-02   -0.16019E-03  4560   0.155E-01    0.469E-01
DAV:   3    -0.438199606636E+03    0.17406E-02   -0.10566E-03  3732   0.151E-01    0.348E-02
DAV:   4    -0.438199629524E+03   -0.22888E-04   -0.66271E-05  2436   0.251E-02
   2 F= -.47506449E+03 E0= -.47450912E+03  d E =-.132963E-01  mag=     0.0086
       N       E                     dE             d eps       ncg     rms          rms(c)
DAV:   1    -0.438599924398E+03   -0.40032E+00   -0.91618E+01  4278   0.113E+01    0.106E+00
DAV:   2    -0.438711189790E+03   -0.11127E+00   -0.11984E+00  4644   0.169E+00    0.971E-01
DAV:   3    -0.438843646187E+03   -0.13246E+00   -0.13177E-01  4548   0.154E+00    0.422E+00
DAV:   4    -0.438724192225E+03    0.11945E+00   -0.11691E-01  4626   0.166E+00    0.163E+00
DAV:   5    -0.438707385762E+03    0.16806E-01   -0.26886E-02  4638   0.615E-01    0.903E-01
DAV:   6    -0.438707999740E+03   -0.61398E-03   -0.23655E-02  4728   0.483E-01    0.986E-01
DAV:   7    -0.438708959460E+03   -0.95972E-03   -0.25656E-02  4680   0.502E-01    0.102E+00
DAV:   8    -0.438704042816E+03    0.49166E-02   -0.19365E-02  4692   0.448E-01    0.661E-01
DAV:   9    -0.438701745819E+03    0.22970E-02   -0.77957E-03  4722   0.259E-01    0.307E-01
DAV:  10    -0.438701716733E+03    0.29086E-04   -0.26557E-03  4740   0.157E-01    0.312E-01
DAV:  11    -0.438701240497E+03    0.47624E-03   -0.14891E-03  3750   0.116E-01    0.165E-01
DAV:  12    -0.438701046013E+03    0.19448E-03   -0.34405E-04  2508   0.636E-02    0.646E-02
DAV:  13    -0.438701048129E+03   -0.21162E-05   -0.13139E-04  2328   0.356E-02
   3 F= -.47552568E+03 E0= -.47497323E+03  d E =-.461192E+00  mag=     0.0086
       N       E                     dE             d eps       ncg     rms          rms(c)
DAV:   1    -0.438996665947E+03   -0.29562E+00   -0.61108E+01  4272   0.941E+00    0.105E+00
DAV:   2    -0.439080683547E+03   -0.84018E-01   -0.81497E-01  4614   0.146E+00    0.132E+00
DAV:   3    -0.439175218610E+03   -0.94535E-01   -0.14775E-01  4602   0.155E+00    0.377E+00
DAV:   4    -0.439105288917E+03    0.69930E-01   -0.10832E-01  4626   0.161E+00    0.228E+00
DAV:   5    -0.439078658686E+03    0.26630E-01   -0.56615E-02  4746   0.918E-01    0.141E+00
DAV:   6    -0.439067434557E+03    0.11224E-01   -0.26201E-02  4722   0.514E-01    0.680E-01
DAV:   7    -0.439071009291E+03   -0.35747E-02   -0.23151E-02  4662   0.485E-01    0.998E-01
DAV:   8    -0.439071263858E+03   -0.25457E-03   -0.26999E-02  4668   0.499E-01    0.102E+00
DAV:   9    -0.439065712824E+03    0.55510E-02   -0.12933E-02  4728   0.377E-01    0.473E-01
DAV:  10    -0.439064508015E+03    0.12048E-02   -0.27742E-03  4584   0.170E-01    0.269E-01
DAV:  11    -0.439064175968E+03    0.33205E-03   -0.10738E-03  3876   0.110E-01    0.182E-01
DAV:  12    -0.439064040251E+03    0.13572E-03   -0.52307E-04  2772   0.830E-02    0.125E-01
DAV:  13    -0.439064022833E+03    0.17418E-04   -0.19762E-04  2448   0.448E-02
   4 F= -.47585182E+03 E0= -.47530172E+03  d E =-.326143E+00  mag=     0.0091
       N       E                     dE             d eps       ncg     rms          rms(c)
DAV:   1    -0.439171292684E+03   -0.10725E+00   -0.22620E+01  4272   0.562E+00    0.911E-01
DAV:   2    -0.439269373059E+03   -0.98080E-01   -0.34199E-01  4578   0.139E+00    0.303E+00
DAV:   3    -0.439277593151E+03   -0.82201E-02   -0.15096E-01  4584   0.191E+00    0.324E+00
DAV:   4    -0.439210137663E+03    0.67455E-01   -0.57269E-02  4740   0.119E+00    0.137E+00
DAV:   5    -0.439205532191E+03    0.46055E-02   -0.36225E-02  4740   0.626E-01    0.124E+00
DAV:   6    -0.439198738665E+03    0.67935E-02   -0.25379E-02  4710   0.497E-01    0.741E-01
DAV:   7    -0.439196549986E+03    0.21887E-02   -0.14013E-02  4620   0.375E-01    0.519E-01
DAV:   8    -0.439198072524E+03   -0.15225E-02   -0.10673E-02  4686   0.321E-01    0.699E-01
DAV:   9    -0.439195741733E+03    0.23308E-02   -0.63827E-03  4686   0.266E-01    0.357E-01
DAV:  10    -0.439194897337E+03    0.84440E-03   -0.16946E-03  4428   0.141E-01    0.163E-01
DAV:  11    -0.439194852826E+03    0.44510E-04   -0.53490E-04  2736   0.741E-02
   5 F= -.47597194E+03 E0= -.47542333E+03  d E =-.120120E+00  mag=     0.0100
       N       E                     dE             d eps       ncg     rms          rms(c)
DAV:   1    -0.439202751091E+03   -0.78538E-02   -0.25487E+01  4272   0.589E+00    0.580E-01
DAV:   2    -0.439251527272E+03   -0.48776E-01   -0.34437E-01  4500   0.103E+00    0.163E+00
DAV:   3    -0.439268727799E+03   -0.17201E-01   -0.70255E-02  4638   0.114E+00    0.218E+00
DAV:   4    -0.439239528864E+03    0.29199E-01   -0.35331E-02  4662   0.837E-01    0.103E+00
DAV:   5    -0.439234394933E+03    0.51339E-02   -0.15508E-02  4710   0.406E-01    0.661E-01
DAV:   6    -0.439232262183E+03    0.21328E-02   -0.71408E-03  4668   0.266E-01    0.415E-01
DAV:   7    -0.439233924799E+03   -0.16626E-02   -0.79406E-03  4716   0.270E-01    0.645E-01
DAV:   8    -0.439232384874E+03    0.15399E-02   -0.69478E-03  4674   0.265E-01    0.405E-01
DAV:   9    -0.439231392604E+03    0.99227E-03   -0.23942E-03  4770   0.175E-01    0.225E-01
DAV:  10    -0.439231205337E+03    0.18727E-03   -0.95868E-04  3522   0.973E-02    0.169E-01
DAV:  11    -0.439231084476E+03    0.12086E-03   -0.46340E-04  2556   0.700E-02    0.100E-01
DAV:  12    -0.439231010428E+03    0.74047E-04   -0.14887E-04  2388   0.435E-02
   6 F= -.47600994E+03 E0= -.47546181E+03  d E =-.379939E-01  mag=     0.0115
       N       E                     dE             d eps       ncg     rms          rms(c)
DAV:   1    -0.439209616228E+03    0.21468E-01   -0.26906E+01  4272   0.605E+00    0.583E-01
DAV:   2    -0.439247517161E+03   -0.37901E-01   -0.37987E-01  4422   0.969E-01    0.828E-01
DAV:   3    -0.439251763088E+03   -0.42459E-02   -0.40418E-02  4476   0.581E-01    0.119E+00
DAV:   4    -0.439251359654E+03    0.40343E-03   -0.23059E-02  4626   0.562E-01    0.106E+00
DAV:   5    -0.439253959224E+03   -0.25996E-02   -0.18453E-02  4626   0.648E-01    0.125E+00
DAV:   6    -0.439243418281E+03    0.10541E-01   -0.10829E-02  4650   0.427E-01    0.498E-01
DAV:   7    -0.439244316958E+03   -0.89868E-03   -0.84924E-03  4716   0.301E-01    0.643E-01
DAV:   8    -0.439243292975E+03    0.10240E-02   -0.87068E-03  4668   0.293E-01    0.503E-01
DAV:   9    -0.439241685856E+03    0.16071E-02   -0.38931E-03  4668   0.215E-01    0.235E-01
DAV:  10    -0.439241382496E+03    0.30336E-03   -0.10859E-03  4416   0.101E-01    0.127E-01
DAV:  11    -0.439241331102E+03    0.51394E-04   -0.34264E-04  2550   0.594E-02
   7 F= -.47603234E+03 E0= -.47548432E+03  d E =-.223989E-01  mag=     0.0132
       N       E                     dE             d eps       ncg     rms          rms(c)
DAV:   1    -0.439105417022E+03    0.13597E+00   -0.96643E+01  4284   0.115E+01    0.104E+00
DAV:   2    -0.439254241121E+03   -0.14882E+00   -0.14286E+00  4386   0.201E+00    0.167E+00
DAV:   3    -0.439273272403E+03   -0.19031E-01   -0.14070E-01  4416   0.134E+00    0.239E+00
DAV:   4    -0.439260770998E+03    0.12501E-01   -0.65539E-02  4596   0.125E+00    0.204E+00
DAV:   5    -0.439236175667E+03    0.24595E-01   -0.27169E-02  4638   0.781E-01    0.112E+00
DAV:   6    -0.439230347040E+03    0.58286E-02   -0.18706E-02  4686   0.434E-01    0.764E-01
DAV:   7    -0.439230184848E+03    0.16219E-03   -0.16074E-02  4680   0.411E-01    0.839E-01
DAV:   8    -0.439233030597E+03   -0.28457E-02   -0.25108E-02  4644   0.483E-01    0.114E+00
DAV:   9    -0.439226958696E+03    0.60719E-02   -0.20072E-02  4746   0.440E-01    0.628E-01
DAV:  10    -0.439224614480E+03    0.23442E-02   -0.55173E-03  4704   0.232E-01    0.272E-01
DAV:  11    -0.439224318754E+03    0.29573E-03   -0.14113E-03  4578   0.118E-01    0.209E-01
DAV:  12    -0.439224104548E+03    0.21421E-03   -0.61877E-04  2880   0.844E-02    0.147E-01
DAV:  13    -0.439223954825E+03    0.14972E-03   -0.25197E-04  2508   0.523E-02    0.911E-02
DAV:  14    -0.439223932047E+03    0.22778E-04   -0.15727E-04  2328   0.363E-02
   8 F= -.47604834E+03 E0= -.47550012E+03  d E =-.160023E-01  mag=     0.0162
       N       E                     dE             d eps       ncg     rms          rms(c)
DAV:   1    -0.439208032601E+03    0.15922E-01   -0.12663E+01  4284   0.426E+00    0.371E-01
DAV:   2    -0.439227367629E+03   -0.19335E-01   -0.17853E-01  4404   0.715E-01    0.760E-01
DAV:   3    -0.439225862248E+03    0.15054E-02   -0.19060E-02  4494   0.431E-01    0.631E-01
DAV:   4    -0.439227815789E+03   -0.19535E-02   -0.10589E-02  4662   0.363E-01    0.789E-01
DAV:   5    -0.439227096532E+03    0.71926E-03   -0.75441E-03  4602   0.410E-01    0.754E-01
DAV:   6    -0.439223099163E+03    0.39974E-02   -0.26118E-03  4434   0.221E-01    0.210E-01
DAV:   7    -0.439223610289E+03   -0.51113E-03   -0.22817E-03  4716   0.151E-01    0.388E-01
DAV:   8    -0.439223460406E+03    0.14988E-03   -0.36717E-03  4722   0.182E-01    0.371E-01
DAV:   9    -0.439222620560E+03    0.83985E-03   -0.21742E-03  4740   0.149E-01    0.160E-01
DAV:  10    -0.439222505850E+03    0.11471E-03   -0.58878E-04  2712   0.739E-02    0.108E-01
DAV:  11    -0.439222459456E+03    0.46395E-04   -0.20469E-04  2400   0.469E-02
   9 F= -.47605680E+03 E0= -.47550835E+03  d E =-.846352E-02  mag=     0.0192
       N       E                     dE             d eps       ncg     rms          rms(c)
DAV:   1    -0.439215546869E+03    0.69590E-02   -0.47498E+00  4284   0.260E+00    0.235E-01
DAV:   2    -0.439222787077E+03   -0.72402E-02   -0.66220E-02  4386   0.432E-01    0.458E-01
DAV:   3    -0.439222280771E+03    0.50631E-03   -0.69547E-03  4536   0.255E-01    0.371E-01
DAV:   4    -0.439222358956E+03   -0.78185E-04   -0.39285E-03  4608   0.198E-01    0.405E-01
DAV:   5    -0.439222805073E+03   -0.44612E-03   -0.20670E-03  3966   0.205E-01    0.459E-01
DAV:   6    -0.439221536990E+03    0.12681E-02   -0.15181E-03  3294   0.184E-01    0.218E-01
DAV:   7    -0.439221521248E+03    0.15743E-04   -0.10471E-03  3510   0.111E-01    0.252E-01
DAV:   8    -0.439221439617E+03    0.81631E-04   -0.15585E-03  4524   0.119E-01    0.238E-01
DAV:   9    -0.439221088670E+03    0.35095E-03   -0.84441E-04  3222   0.947E-02    0.114E-01
DAV:  10    -0.439221017141E+03    0.71528E-04   -0.23856E-04  2400   0.462E-02
  10 F= -.47606219E+03 E0= -.47551370E+03  d E =-.538659E-02  mag=     0.0226
       N       E                     dE             d eps       ncg     rms          rms(c)
DAV:   1    -0.439188002834E+03    0.33086E-01   -0.23301E+01  4272   0.573E+00    0.568E-01
DAV:   2    -0.439233693462E+03   -0.45691E-01   -0.33004E-01  4428   0.104E+00    0.154E+00
DAV:   3    -0.439241591000E+03   -0.78975E-02   -0.57376E-02  4590   0.980E-01    0.182E+00
DAV:   4    -0.439225312626E+03    0.16278E-01   -0.28065E-02  4554   0.839E-01    0.112E+00
DAV:   5    -0.439220240271E+03    0.50724E-02   -0.17242E-02  4734   0.472E-01    0.883E-01
DAV:   6    -0.439216032826E+03    0.42074E-02   -0.71217E-03  4656   0.279E-01    0.380E-01
DAV:   7    -0.439216856021E+03   -0.82320E-03   -0.59177E-03  4644   0.260E-01    0.564E-01
DAV:   8    -0.439217723698E+03   -0.86768E-03   -0.93194E-03  4722   0.299E-01    0.686E-01
DAV:   9    -0.439214935318E+03    0.27884E-02   -0.60260E-03  4698   0.246E-01    0.245E-01
DAV:  10    -0.439214552939E+03    0.38238E-03   -0.11980E-03  4428   0.107E-01    0.134E-01
DAV:  11    -0.439214485759E+03    0.67181E-04   -0.35368E-04  2574   0.613E-02
  11 F= -.47607366E+03 E0= -.47552556E+03  d E =-.114763E-01  mag=     0.0269
       N       E                     dE             d eps       ncg     rms          rms(c)
DAV:   1    -0.438976119621E+03    0.23843E+00   -0.16413E+02  4272   0.152E+01    0.147E+00
DAV:   2    -0.439190647901E+03   -0.21453E+00   -0.23047E+00  4386   0.236E+00    0.143E+00
DAV:   3    -0.439235128858E+03   -0.44481E-01   -0.20006E-01  4452   0.134E+00    0.301E+00
DAV:   4    -0.439202432883E+03    0.32696E-01   -0.14132E-01  4596   0.124E+00    0.205E+00
DAV:   5    -0.439204792232E+03   -0.23593E-02   -0.52728E-02  4608   0.106E+00    0.207E+00
DAV:   6    -0.439184399739E+03    0.20392E-01   -0.40685E-02  4614   0.963E-01    0.136E+00
DAV:   7    -0.439188493243E+03   -0.40935E-02   -0.44253E-02  4632   0.753E-01    0.165E+00
DAV:   8    -0.439178133139E+03    0.10360E-01   -0.53119E-02  4710   0.689E-01    0.116E+00
DAV:   9    -0.439170973370E+03    0.71598E-02   -0.20009E-02  4728   0.447E-01    0.550E-01
DAV:  10    -0.439169512378E+03    0.14610E-02   -0.55376E-03  4602   0.236E-01    0.362E-01
DAV:  11    -0.439168876813E+03    0.63557E-03   -0.21987E-03  4716   0.160E-01    0.258E-01
DAV:  12    -0.439168433802E+03    0.44301E-03   -0.83292E-04  3378   0.103E-01    0.133E-01
DAV:  13    -0.439168346031E+03    0.87771E-04   -0.28525E-04  2598   0.519E-02
  12 F= -.47600631E+03 E0= -.47545862E+03  d E =0.673503E-01  mag=     0.0331
       N       E                     dE             d eps       ncg     rms          rms(c)
DAV:   1    -0.439145742285E+03    0.22692E-01   -0.10196E+02  4272   0.120E+01    0.125E+00
DAV:   2    -0.439296340148E+03   -0.15060E+00   -0.14848E+00  4362   0.193E+00    0.200E+00
DAV:   3    -0.439541441063E+03   -0.24510E+00   -0.23614E-01  4812   0.239E+00    0.592E+00
DAV:   4    -0.439317616214E+03    0.22382E+00   -0.27247E-01  4818   0.224E+00    0.267E+00
DAV:   5    -0.439274210443E+03    0.43406E-01   -0.75517E-02  4776   0.853E-01    0.114E+00
DAV:   6    -0.439267870384E+03    0.63401E-02   -0.22133E-02  4728   0.459E-01    0.682E-01
DAV:   7    -0.439272717224E+03   -0.48468E-02   -0.20051E-02  4680   0.493E-01    0.106E+00
DAV:   8    -0.439270152183E+03    0.25650E-02   -0.25926E-02  4752   0.518E-01    0.953E-01
DAV:   9    -0.439265750695E+03    0.44015E-02   -0.13971E-02  4806   0.367E-01    0.486E-01
DAV:  10    -0.439264807696E+03    0.94300E-03   -0.48641E-03  4680   0.240E-01    0.347E-01
DAV:  11    -0.439264045990E+03    0.76171E-03   -0.18834E-03  4668   0.151E-01    0.204E-01
DAV:  12    -0.439263771221E+03    0.27477E-03   -0.50328E-04  2778   0.738E-02    0.915E-02
DAV:  13    -0.439263714717E+03    0.56504E-04   -0.13823E-04  2388   0.345E-02
  13 F= -.47609544E+03 E0= -.47554834E+03  d E =-.891274E-01  mag=     0.0408
       N       E                     dE             d eps       ncg     rms          rms(c)
DAV:   1    -0.439268187005E+03   -0.44158E-02   -0.40057E+00  4290   0.236E+00    0.270E-01
DAV:   2    -0.439276351478E+03   -0.81645E-02   -0.58776E-02  4398   0.431E-01    0.723E-01
DAV:   3    -0.439280214726E+03   -0.38632E-02   -0.14384E-02  4626   0.510E-01    0.982E-01
DAV:   4    -0.439276170965E+03    0.40438E-02   -0.88513E-03  4644   0.437E-01    0.722E-01
DAV:   5    -0.439272974824E+03    0.31961E-02   -0.48354E-03  4680   0.233E-01    0.241E-01
DAV:   6    -0.439272580455E+03    0.39437E-03   -0.10057E-03  3822   0.106E-01    0.149E-01
DAV:   7    -0.439272707427E+03   -0.12697E-03   -0.99598E-04  4092   0.105E-01    0.223E-01
DAV:   8    -0.439272590250E+03    0.11718E-03   -0.11946E-03  4074   0.113E-01    0.195E-01
DAV:   9    -0.439272246878E+03    0.34337E-03   -0.52374E-04  2814   0.805E-02    0.860E-02
DAV:  10    -0.439272208009E+03    0.38870E-04   -0.16884E-04  2370   0.394E-02
  14 F= -.47610556E+03 E0= -.47555837E+03  d E =-.101173E-01  mag=     0.0485
       N       E                     dE             d eps       ncg     rms          rms(c)
DAV:   1    -0.439274709389E+03   -0.24625E-02   -0.76012E-01  4290   0.104E+00    0.118E-01
DAV:   2    -0.439276154451E+03   -0.14451E-02   -0.12029E-02  4416   0.197E-01    0.322E-01
DAV:   3    -0.439276219780E+03   -0.65330E-04   -0.27409E-03  4590   0.182E-01    0.320E-01
DAV:   4    -0.439276518609E+03   -0.29883E-03   -0.15946E-03  3534   0.192E-01    0.378E-01
DAV:   5    -0.439275525879E+03    0.99273E-03   -0.10007E-03  2940   0.137E-01    0.132E-01
DAV:   6    -0.439275404418E+03    0.12146E-03   -0.26929E-04  2490   0.618E-02    0.884E-02
DAV:   7    -0.439275345162E+03    0.59257E-04   -0.16269E-04  2376   0.420E-02
  15 F= -.47610982E+03 E0= -.47556251E+03  d E =-.426172E-02  mag=     0.0536
       N       E                     dE             d eps       ncg     rms          rms(c)
DAV:   1    -0.439276548964E+03   -0.11445E-02   -0.89980E+00  4272   0.353E+00    0.391E-01
DAV:   2    -0.439290379176E+03   -0.13830E-01   -0.12397E-01  4374   0.594E-01    0.767E-01
DAV:   3    -0.439290661625E+03   -0.28245E-03   -0.18705E-02  4566   0.441E-01    0.778E-01
DAV:   4    -0.439297162860E+03   -0.65012E-02   -0.12377E-02  4650   0.502E-01    0.118E+00
DAV:   5    -0.439288994087E+03    0.81688E-02   -0.10065E-02  4662   0.479E-01    0.561E-01
DAV:   6    -0.439286994806E+03    0.19993E-02   -0.43684E-03  4680   0.267E-01    0.359E-01
DAV:   7    -0.439287281950E+03   -0.28714E-03   -0.36838E-03  4770   0.197E-01    0.440E-01
DAV:   8    -0.439287061850E+03    0.22010E-03   -0.49320E-03  4716   0.208E-01    0.417E-01
DAV:   9    -0.439285856155E+03    0.12057E-02   -0.22791E-03  4650   0.152E-01    0.127E-01
DAV:  10    -0.439285725591E+03    0.13056E-03   -0.33216E-04  2580   0.611E-02    0.705E-02
DAV:  11    -0.439285662376E+03    0.63214E-04   -0.11646E-04  2364   0.357E-02
  16 F= -.47612458E+03 E0= -.47557703E+03  d E =-.147555E-01  mag=     0.0644
       N       E                     dE             d eps       ncg     rms          rms(c)
DAV:   1    -0.438993815302E+03    0.29191E+00   -0.13870E+02  4272   0.140E+01    0.167E+00
DAV:   2    -0.439177178030E+03   -0.18336E+00   -0.21419E+00  4458   0.220E+00    0.145E+00
DAV:   3    -0.439243984088E+03   -0.66806E-01   -0.26275E-01  4458   0.161E+00    0.347E+00
DAV:   4    -0.439214645907E+03    0.29338E-01   -0.18704E-01  4632   0.149E+00    0.277E+00
DAV:   5    -0.439198489537E+03    0.16156E-01   -0.75910E-02  4596   0.131E+00    0.226E+00
DAV:   6    -0.439163790481E+03    0.34699E-01   -0.36583E-02  4626   0.861E-01    0.940E-01
DAV:   7    -0.439177378476E+03   -0.13588E-01   -0.44335E-02  4734   0.702E-01    0.168E+00
DAV:   8    -0.439165487688E+03    0.11891E-01   -0.48145E-02  4620   0.686E-01    0.105E+00
DAV:   9    -0.439158624958E+03    0.68627E-02   -0.16161E-02  4764   0.427E-01    0.447E-01
DAV:  10    -0.439158074347E+03    0.55061E-03   -0.54565E-03  4632   0.239E-01    0.399E-01
DAV:  11    -0.439157424266E+03    0.65008E-03   -0.31186E-03  4692   0.180E-01    0.312E-01
DAV:  12    -0.439156819342E+03    0.60492E-03   -0.10989E-03  3444   0.107E-01    0.147E-01
DAV:  13    -0.439156674573E+03    0.14477E-03   -0.27097E-04  2496   0.494E-02    0.117E-01
DAV:  14    -0.439156569433E+03    0.10514E-03   -0.22225E-04  2376   0.432E-02    0.108E-01
DAV:  15    -0.439156369722E+03    0.19971E-03   -0.17068E-04  2406   0.370E-02    0.434E-02
DAV:  16    -0.439156293703E+03    0.76019E-04   -0.59126E-05  2328   0.216E-02
  17 F= -.47599116E+03 E0= -.47544400E+03  d E =0.133414E+00  mag=     0.0844
       N       E                     dE             d eps       ncg     rms          rms(c)
DAV:   1    -0.439233547085E+03   -0.77177E-01   -0.78788E+01  4272   0.104E+01    0.128E+00
DAV:   2    -0.439333516015E+03   -0.99969E-01   -0.11395E+00  4386   0.168E+00    0.120E+00
DAV:   3    -0.439671592833E+03   -0.33808E+00   -0.29306E-01  4812   0.243E+00    0.658E+00
DAV:   4    -0.439345155677E+03    0.32644E+00   -0.27576E-01  4842   0.220E+00    0.164E+00
DAV:   5    -0.439325669504E+03    0.19486E-01   -0.33352E-02  4782   0.622E-01    0.921E-01
DAV:   6    -0.439324509271E+03    0.11602E-02   -0.22289E-02  4752   0.444E-01    0.858E-01
DAV:   7    -0.439328093150E+03   -0.35839E-02   -0.23940E-02  4848   0.505E-01    0.100E+00
DAV:   8    -0.439323523786E+03    0.45694E-02   -0.16396E-02  4848   0.451E-01    0.730E-01
DAV:   9    -0.439321243581E+03    0.22802E-02   -0.95797E-03  4752   0.309E-01    0.504E-01
DAV:  10    -0.439320238354E+03    0.10052E-02   -0.41149E-03  4776   0.207E-01    0.315E-01
DAV:  11    -0.439319424900E+03    0.81345E-03   -0.12912E-03  4254   0.133E-01    0.151E-01
DAV:  12    -0.439319251622E+03    0.17328E-03   -0.36550E-04  2700   0.671E-02    0.962E-02
DAV:  13    -0.439319166375E+03    0.85247E-04   -0.11617E-04  2352   0.308E-02
  18 F= -.47615735E+03 E0= -.47561002E+03  d E =-.166190E+00  mag=     0.1046
       N       E                     dE             d eps       ncg     rms          rms(c)
DAV:   1    -0.439321502787E+03   -0.22512E-02   -0.14674E+00  4308   0.144E+00    0.159E-01
DAV:   2    -0.439324437434E+03   -0.29346E-02   -0.23323E-02  4374   0.268E-01    0.477E-01
DAV:   3    -0.439325360708E+03   -0.92327E-03   -0.51033E-03  4638   0.300E-01    0.564E-01
DAV:   4    -0.439324291680E+03    0.10690E-02   -0.36855E-03  4566   0.277E-01    0.461E-01
DAV:   5    -0.439322847993E+03    0.14437E-02   -0.17660E-03  3444   0.150E-01    0.149E-01
DAV:   6    -0.439322684364E+03    0.16363E-03   -0.26863E-04  2598   0.589E-02    0.846E-02
DAV:   7    -0.439322596051E+03    0.88313E-04   -0.23165E-04  2490   0.536E-02
  19 F= -.47616127E+03 E0= -.47561386E+03  d E =-.391431E-02  mag=     0.1185
       N       E                     dE             d eps       ncg     rms          rms(c)
DAV:   1    -0.439324584452E+03   -0.19001E-02   -0.93381E-01  4308   0.116E+00    0.181E-01
DAV:   2    -0.439329370649E+03   -0.47862E-02   -0.19627E-02  4398   0.328E-01    0.802E-01
DAV:   3    -0.439325445665E+03    0.39250E-02   -0.80991E-03  4560   0.287E-01    0.231E-01
DAV:   4    -0.439325691052E+03   -0.24539E-03   -0.15714E-03  4512   0.140E-01    0.306E-01
DAV:   5    -0.439326274660E+03   -0.58361E-03   -0.16402E-03  3474   0.190E-01    0.400E-01
DAV:   6    -0.439324997831E+03    0.12768E-02   -0.12709E-03  3042   0.163E-01    0.173E-01
DAV:   7    -0.439324815956E+03    0.18188E-03   -0.28389E-04  2484   0.560E-02    0.103E-01
DAV:   8    -0.439324513769E+03    0.30219E-03   -0.32807E-04  2556   0.606E-02    0.123E-01
DAV:   9    -0.439324219502E+03    0.29427E-03   -0.34806E-04  2478   0.595E-02    0.102E-01
DAV:  10    -0.439324037411E+03    0.18209E-03   -0.13264E-04  2334   0.359E-02    0.480E-02
DAV:  11    -0.439323902903E+03    0.13451E-03   -0.34260E-05  2292   0.194E-02    0.342E-02
DAV:  12    -0.439323731322E+03    0.17158E-03   -0.98253E-06  2268   0.110E-02    0.283E-02
DAV:  13    -0.439323680897E+03    0.50425E-04   -0.31017E-06  2250   0.501E-03
  20 F= -.47616264E+03 E0= -.47561520E+03  d E =-.136831E-02  mag=     0.1430
       N       E                     dE             d eps       ncg     rms          rms(c)
DAV:   1    -0.439328020055E+03   -0.42887E-02   -0.21785E+00  4284   0.170E+00    0.262E-01
DAV:   2    -0.439330263556E+03   -0.22435E-02   -0.29497E-02  4386   0.267E-01    0.286E-01
DAV:   3    -0.439341632048E+03   -0.11368E-01   -0.93959E-03  4914   0.452E-01    0.125E+00
DAV:   4    -0.439331368833E+03    0.10263E-01   -0.99513E-03  4932   0.471E-01    0.556E-01
DAV:   5    -0.439329560479E+03    0.18084E-02   -0.35996E-03  4758   0.204E-01    0.264E-01
DAV:   6    -0.439329209707E+03    0.35077E-03   -0.15337E-03  4452   0.125E-01    0.192E-01
DAV:   7    -0.439329162193E+03    0.47514E-04   -0.13602E-03  3930   0.121E-01    0.274E-01
DAV:   8    -0.439328485560E+03    0.67663E-03   -0.98777E-04  2838   0.102E-01    0.145E-01
DAV:   9    -0.439328238311E+03    0.24725E-03   -0.26048E-04  2466   0.548E-02    0.698E-02
DAV:  10    -0.439328127897E+03    0.11041E-03   -0.78572E-05  2298   0.265E-02    0.526E-02
DAV:  11    -0.439327876669E+03    0.25123E-03   -0.37134E-05  2310   0.201E-02    0.392E-02
DAV:  12    -0.439327653775E+03    0.22289E-03   -0.14956E-05  2328   0.135E-02    0.309E-02
DAV:  13    -0.439327526842E+03    0.12693E-03   -0.40764E-06  2250   0.574E-03    0.284E-02
DAV:  14    -0.439327500066E+03    0.26776E-04   -0.86058E-07  2322   0.149E-03
  21 F= -.47616728E+03 E0= -.47561976E+03  d E =-.464944E-02  mag=     0.1740
       N       E                     dE             d eps       ncg     rms          rms(c)
DAV:   1    -0.439329450747E+03   -0.19239E-02   -0.55182E+00  4272   0.250E+00    0.536E-01
DAV:   2    -0.439333475840E+03   -0.40251E-02   -0.65115E-02  4380   0.372E-01    0.429E-01
DAV:   3    -0.439349714202E+03   -0.16238E-01   -0.23187E-02  4692   0.578E-01    0.154E+00
DAV:   4    -0.439355616066E+03   -0.59019E-02   -0.36891E-02  5046   0.889E-01    0.175E+00
DAV:   5    -0.439335881044E+03    0.19735E-01   -0.22477E-02  5112   0.682E-01    0.856E-01
DAV:   6    -0.439331682811E+03    0.41982E-02   -0.99569E-03  4752   0.323E-01    0.348E-01
DAV:   7    -0.439331727602E+03   -0.44791E-04   -0.35488E-03  4698   0.207E-01    0.383E-01
DAV:   8    -0.439330751700E+03    0.97590E-03   -0.22590E-03  4392   0.157E-01    0.243E-01
DAV:   9    -0.439330219744E+03    0.53196E-03   -0.67224E-04  2748   0.887E-02    0.926E-02
DAV:  10    -0.439330105549E+03    0.11419E-03   -0.14934E-04  2400   0.372E-02    0.579E-02
DAV:  11    -0.439329886990E+03    0.21856E-03   -0.64652E-05  2334   0.251E-02    0.540E-02
DAV:  12    -0.439329406485E+03    0.48050E-03   -0.42712E-05  2370   0.213E-02    0.463E-02
DAV:  13    -0.439329157292E+03    0.24919E-03   -0.20145E-05  2268   0.148E-02    0.433E-02
DAV:  14    -0.439328967697E+03    0.18959E-03   -0.12060E-05  2244   0.101E-02    0.387E-02
DAV:  15    -0.439328741655E+03    0.22604E-03   -0.36354E-06  2274   0.567E-03    0.347E-02
DAV:  16    -0.439328755991E+03   -0.14337E-04   -0.75154E-07  2286   0.129E-03
  22 F= -.47617162E+03 E0= -.47562424E+03  d E =-.433731E-02  mag=     0.2185
       N       E                     dE             d eps       ncg     rms          rms(c)
DAV:   1    -0.439318809039E+03    0.99326E-02   -0.75555E+00  4278   0.327E+00    0.275E-01
DAV:   2    -0.439327921545E+03   -0.91125E-02   -0.10404E-01  4398   0.509E-01    0.332E-01
DAV:   3    -0.439337610665E+03   -0.96891E-02   -0.12112E-02  4554   0.452E-01    0.117E+00
DAV:   4    -0.439327573785E+03    0.10037E-01   -0.89366E-03  4596   0.466E-01    0.458E-01
DAV:   5    -0.439326713933E+03    0.85985E-03   -0.21579E-03  4590   0.161E-01    0.276E-01
DAV:   6    -0.439326384449E+03    0.32948E-03   -0.13306E-03  3846   0.109E-01    0.206E-01
DAV:   7    -0.439326061302E+03    0.32315E-03   -0.13434E-03  4242   0.123E-01    0.263E-01
DAV:   8    -0.439324925300E+03    0.11360E-02   -0.14539E-03  4284   0.121E-01    0.220E-01
DAV:   9    -0.439324345692E+03    0.57961E-03   -0.76130E-04  2844   0.865E-02    0.114E-01
DAV:  10    -0.439323986914E+03    0.35878E-03   -0.25973E-04  2466   0.522E-02    0.790E-02
DAV:  11    -0.439323573308E+03    0.41361E-03   -0.90418E-05  2334   0.329E-02    0.646E-02
DAV:  12    -0.439323368347E+03    0.20496E-03   -0.27498E-05  2286   0.185E-02    0.479E-02
DAV:  13    -0.439323222990E+03    0.14536E-03   -0.48434E-06  2256   0.632E-03    0.453E-02
DAV:  14    -0.439323351249E+03   -0.12826E-03   -0.12931E-06  2316   0.227E-03    0.468E-02
DAV:  15    -0.439323670989E+03   -0.31974E-03   -0.31987E-06  2268   0.499E-03    0.493E-02
DAV:  16    -0.439324161173E+03   -0.49018E-03   -0.49342E-06  2292   0.716E-03    0.506E-02
DAV:  17    -0.439326290906E+03   -0.21297E-02   -0.22113E-05  2484   0.129E-02    0.526E-02
DAV:  18    -0.439329228675E+03   -0.29378E-02   -0.45129E-05  2568   0.172E-02    0.533E-02
DAV:  19    -0.439331495304E+03   -0.22666E-02   -0.51097E-05  2568   0.177E-02    0.617E-02
DAV:  20    -0.439333892703E+03   -0.23974E-02   -0.57115E-05  2580   0.184E-02    0.637E-02
DAV:  21    -0.439336162517E+03   -0.22698E-02   -0.55749E-05  2610   0.188E-02    0.675E-02
DAV:  22    -0.439339737259E+03   -0.35747E-02   -0.13743E-04  2868   0.271E-02    0.799E-02
DAV:  23    -0.439342274845E+03   -0.25376E-02   -0.16547E-04  2994   0.296E-02    0.465E-02
DAV:  24    -0.439342354319E+03   -0.79474E-04   -0.62069E-05  2622   0.191E-02
  23 F= -.47618759E+03 E0= -.47564005E+03  d E =-.159640E-01  mag=    -0.0298
       N       E                     dE             d eps       ncg     rms          rms(c)
DAV:   1    -0.439343353876E+03   -0.10790E-02   -0.17375E+00  4344   0.158E+00    0.152E-01
DAV:   2    -0.439346164336E+03   -0.28105E-02   -0.24650E-02  4452   0.259E-01    0.300E-01
DAV:   3    -0.439348339254E+03   -0.21749E-02   -0.38586E-03  4626   0.274E-01    0.596E-01
DAV:   4    -0.439346169805E+03    0.21694E-02   -0.25950E-03  4602   0.247E-01    0.307E-01
DAV:   5    -0.439345638325E+03    0.53148E-03   -0.71076E-04  2802   0.890E-02    0.149E-01
DAV:   6    -0.439345624365E+03    0.13960E-04   -0.38562E-04  2538   0.625E-02
  24 F= -.47619015E+03 E0= -.47564286E+03  d E =-.256677E-02  mag=    -0.0301
       N       E                     dE             d eps       ncg     rms          rms(c)
DAV:   1    -0.439345342980E+03    0.29534E-03   -0.10809E-01  4332   0.399E-01    0.178E-01
DAV:   2    -0.439355151042E+03   -0.98081E-02   -0.16006E-02  4758   0.406E-01    0.124E+00
DAV:   3    -0.439345785575E+03    0.93655E-02   -0.13169E-02  4746   0.369E-01    0.212E-01
DAV:   4    -0.439345511426E+03    0.27415E-03   -0.10069E-03  4398   0.102E-01    0.169E-01
DAV:   5    -0.439345485334E+03    0.26092E-04   -0.42683E-04  2580   0.964E-02
  25 F= -.47619043E+03 E0= -.47564314E+03  d E =-.281157E-03  mag=    -0.0306
