       N       E                     dE             d eps       ncg     rms          rms(c)
DAV:   1     0.658378591963E+04    0.65838E+04   -0.36814E+05  4472   0.130E+03
DAV:   2    -0.303078274039E+02   -0.66141E+04   -0.61394E+04  5488   0.283E+02
DAV:   3    -0.580757667030E+03   -0.55045E+03   -0.50386E+03  5104   0.782E+01
DAV:   4    -0.605919418565E+03   -0.25162E+02   -0.23785E+02  5736   0.162E+01
DAV:   5    -0.606642049464E+03   -0.72263E+00   -0.71438E+00  6576   0.281E+00    0.685E+01
DAV:   6    -0.576784839190E+03    0.29857E+02   -0.98701E+01  4896   0.180E+01    0.373E+01
DAV:   7    -0.620877573303E+03   -0.44093E+02   -0.63953E+01  4896   0.380E+01    0.647E+01
DAV:   8    -0.640990355352E+03   -0.20113E+02   -0.62842E+01  5456   0.455E+01    0.625E+01
DAV:   9    -0.598643150532E+03    0.42347E+02   -0.52087E+01  5890   0.445E+01    0.373E+01
DAV:  10    -0.592964508647E+03    0.56786E+01   -0.37248E+01  5168   0.272E+01    0.415E+01
DAV:  11    -0.577315822659E+03    0.15649E+02   -0.18711E+01  5008   0.175E+01    0.232E+01
DAV:  12    -0.573081365608E+03    0.42345E+01   -0.83303E+00  4744   0.109E+01    0.153E+01
DAV:  13    -0.572707974910E+03    0.37339E+00   -0.45656E+00  4752   0.813E+00    0.145E+01
DAV:  14    -0.571527485978E+03    0.11805E+01   -0.18512E+00  4736   0.516E+00    0.869E+00
DAV:  15    -0.571243457373E+03    0.28403E+00   -0.81283E-01  4816   0.344E+00    0.673E+00
DAV:  16    -0.571223504191E+03    0.19953E-01   -0.77585E-01  4784   0.310E+00    0.634E+00
DAV:  17    -0.571049763878E+03    0.17374E+00   -0.47027E-01  4864   0.255E+00    0.487E+00
DAV:  18    -0.570957508956E+03    0.92255E-01   -0.33509E-01  4808   0.199E+00    0.394E+00
DAV:  19    -0.570864754707E+03    0.92754E-01   -0.21384E-01  4816   0.166E+00    0.270E+00
DAV:  20    -0.570887366490E+03   -0.22612E-01   -0.12196E-01  4880   0.135E+00    0.370E+00
DAV:  21    -0.570873179342E+03    0.14187E-01   -0.60388E-02  4800   0.802E-01    0.333E+00
DAV:  22    -0.570827437379E+03    0.45742E-01   -0.40070E-02  4896   0.774E-01    0.222E+00
DAV:  23    -0.570803018780E+03    0.24419E-01   -0.40882E-02  4992   0.864E-01    0.151E+00
DAV:  24    -0.570809424168E+03   -0.64054E-02   -0.37138E-02  4960   0.689E-01    0.180E+00
DAV:  25    -0.570795053203E+03    0.14371E-01   -0.20238E-02  4992   0.500E-01    0.120E+00
DAV:  26    -0.570786948620E+03    0.81046E-02   -0.72031E-03  4816   0.302E-01    0.708E-01
DAV:  27    -0.570783376281E+03    0.35723E-02   -0.40088E-03  4816   0.240E-01    0.404E-01
DAV:  28    -0.570782592414E+03    0.78387E-03   -0.34901E-03  4744   0.209E-01    0.348E-01
DAV:  29    -0.570782768034E+03   -0.17562E-03   -0.24019E-03  4840   0.182E-01    0.380E-01
DAV:  30    -0.570782516885E+03    0.25115E-03   -0.12873E-03  4712   0.126E-01    0.274E-01
DAV:  31    -0.570782724299E+03   -0.20741E-03   -0.75347E-04  4216   0.936E-02    0.208E-01
DAV:  32    -0.570783605438E+03   -0.88114E-03   -0.71193E-04  3632   0.906E-02    0.181E-01
DAV:  33    -0.570784858578E+03   -0.12531E-02   -0.55348E-04  3672   0.799E-02    0.135E-01
DAV:  34    -0.570785717562E+03   -0.85898E-03   -0.28972E-04  2984   0.551E-02    0.104E-01
DAV:  35    -0.570787555301E+03   -0.18377E-02   -0.37521E-04  3592   0.497E-02    0.964E-02
DAV:  36    -0.570788401283E+03   -0.84598E-03   -0.19503E-04  2992   0.410E-02    0.746E-02
DAV:  37    -0.570789200724E+03   -0.79944E-03   -0.10796E-04  2760   0.304E-02    0.711E-02
DAV:  38    -0.570789798563E+03   -0.59784E-03   -0.72214E-05  2832   0.268E-02    0.415E-02
DAV:  39    -0.570790337097E+03   -0.53853E-03   -0.45479E-05  2768   0.176E-02    0.304E-02
DAV:  40    -0.570790755648E+03   -0.41855E-03   -0.38348E-05  2856   0.151E-02    0.266E-02
DAV:  41    -0.570790970825E+03   -0.21518E-03   -0.21111E-05  2792   0.105E-02    0.148E-02
DAV:  42    -0.570791187327E+03   -0.21650E-03   -0.11057E-05  2760   0.837E-03    0.162E-02
DAV:  43    -0.570791495762E+03   -0.30843E-03   -0.91854E-06  2776   0.693E-03    0.184E-02
DAV:  44    -0.570791799051E+03   -0.30329E-03   -0.10171E-05  2816   0.645E-03    0.177E-02
DAV:  45    -0.570791949204E+03   -0.15015E-03   -0.51203E-06  2776   0.525E-03    0.914E-03
DAV:  46    -0.570792106133E+03   -0.15693E-03   -0.41782E-06  2768   0.418E-03    0.133E-02
DAV:  47    -0.570792197355E+03   -0.91221E-04   -0.25108E-06  2720   0.315E-03
   1 F= -.60921263E+03 E0= -.60868278E+03  d E =-.609213E+03  mag=     0.0029
       N       E                     dE             d eps       ncg     rms          rms(c)
DAV:   1    -0.570799177602E+03   -0.70715E-02   -0.58590E-02  4656   0.267E-01    0.843E-02
DAV:   2    -0.570813219607E+03   -0.14042E-01   -0.72795E-03  5708   0.420E-01    0.130E+00
DAV:   3    -0.570799311747E+03    0.13908E-01   -0.50744E-03  5409   0.373E-01    0.682E-02
DAV:   4    -0.570799367587E+03   -0.55840E-04   -0.32788E-04  3248   0.522E-02
   2 F= -.60921966E+03 E0= -.60868965E+03  d E =-.702116E-02  mag=     0.0031
       N       E                     dE             d eps       ncg     rms          rms(c)
DAV:   1    -0.570807293533E+03   -0.79818E-02   -0.18514E-01  4592   0.487E-01    0.132E-01
DAV:   2    -0.570813255275E+03   -0.59617E-02   -0.81144E-03  5560   0.293E-01    0.868E-01
DAV:   3    -0.570808377786E+03    0.48775E-02   -0.43222E-03  5337   0.319E-01    0.338E-01
DAV:   4    -0.570807691232E+03    0.68655E-03   -0.72814E-04  3152   0.120E-01    0.148E-01
DAV:   5    -0.570807679835E+03    0.11396E-04   -0.44056E-04  2944   0.749E-02
   3 F= -.60922765E+03 E0= -.60869767E+03  d E =-.798950E-02  mag=     0.0034
       N       E                     dE             d eps       ncg     rms          rms(c)
DAV:   1    -0.570811475968E+03   -0.37847E-02   -0.32044E-01  4536   0.686E-01    0.170E-01
DAV:   2    -0.570817663403E+03   -0.61874E-02   -0.12518E-02  5208   0.324E-01    0.910E-01
DAV:   3    -0.570813902215E+03    0.37612E-02   -0.62066E-03  5226   0.351E-01    0.511E-01
DAV:   4    -0.570812263922E+03    0.16383E-02   -0.17754E-03  4697   0.211E-01    0.242E-01
DAV:   5    -0.570812130842E+03    0.13308E-03   -0.84055E-04  3656   0.109E-01    0.202E-01
DAV:   6    -0.570811968253E+03    0.16259E-03   -0.60491E-04  3160   0.887E-02    0.147E-01
DAV:   7    -0.570812008979E+03   -0.40726E-04   -0.44295E-04  3008   0.787E-02
   4 F= -.60923139E+03 E0= -.60870137E+03  d E =-.374778E-02  mag=     0.0037
       N       E                     dE             d eps       ncg     rms          rms(c)
DAV:   1    -0.570813285700E+03   -0.13174E-02   -0.71924E-02  4616   0.337E-01    0.144E-01
DAV:   2    -0.570819173786E+03   -0.58881E-02   -0.81178E-03  5152   0.316E-01    0.940E-01
DAV:   3    -0.570813722299E+03    0.54515E-02   -0.61814E-03  5090   0.290E-01    0.244E-01
DAV:   4    -0.570813566977E+03    0.15532E-03   -0.64700E-04  3209   0.115E-01    0.202E-01
DAV:   5    -0.570813315755E+03    0.25122E-03   -0.35588E-04  2680   0.890E-02    0.100E-01
DAV:   6    -0.570813274903E+03    0.40852E-04   -0.11080E-04  2536   0.367E-02
   5 F= -.60923229E+03 E0= -.60870228E+03  d E =-.896984E-03  mag=     0.0040
       N       E                     dE             d eps       ncg     rms          rms(c)
DAV:   1    -0.570815870702E+03   -0.25549E-02   -0.15845E+00  4514   0.153E+00    0.197E-01
DAV:   2    -0.570819010987E+03   -0.31403E-02   -0.23748E-02  4665   0.273E-01    0.461E-01
DAV:   3    -0.570818818685E+03    0.19230E-03   -0.40295E-03  4968   0.232E-01    0.414E-01
DAV:   4    -0.570820634890E+03   -0.18162E-02   -0.25907E-03  4617   0.266E-01    0.600E-01
DAV:   5    -0.570818278398E+03    0.23565E-02   -0.24769E-03  4512   0.249E-01    0.311E-01
DAV:   6    -0.570817923675E+03    0.35472E-03   -0.69824E-04  3545   0.101E-01    0.209E-01
DAV:   7    -0.570817962029E+03   -0.38354E-04   -0.72715E-04  3272   0.953E-02
   6 F= -.60923511E+03 E0= -.60870491E+03  d E =-.282492E-02  mag=     0.0044
       N       E                     dE             d eps       ncg     rms          rms(c)
DAV:   1    -0.570818536929E+03   -0.61325E-03   -0.19337E-01  4600   0.542E-01    0.183E-01
DAV:   2    -0.570829696822E+03   -0.11160E-01   -0.13767E-02  5202   0.427E-01    0.127E+00
DAV:   3    -0.570822157989E+03    0.75388E-02   -0.11481E-02  5228   0.463E-01    0.670E-01
DAV:   4    -0.570819044548E+03    0.31134E-02   -0.27155E-03  4936   0.255E-01    0.250E-01
DAV:   5    -0.570818701829E+03    0.34272E-03   -0.72229E-04  3899   0.961E-02    0.124E-01
DAV:   6    -0.570818672647E+03    0.29182E-04   -0.29771E-04  2777   0.643E-02
   7 F= -.60923507E+03 E0= -.60870480E+03  d E =0.430230E-04  mag=     0.0047
       N       E                     dE             d eps       ncg     rms          rms(c)
DAV:   1    -0.570819079898E+03   -0.37807E-03   -0.20117E-02  4616   0.174E-01    0.108E-01
DAV:   2    -0.570825310855E+03   -0.62310E-02   -0.60186E-03  5314   0.305E-01    0.924E-01
DAV:   3    -0.570821009147E+03    0.43017E-02   -0.55232E-03  5283   0.353E-01    0.505E-01
DAV:   4    -0.570819086615E+03    0.19225E-02   -0.88879E-04  3312   0.155E-01    0.725E-02
DAV:   5    -0.570819067503E+03    0.19112E-04   -0.18147E-04  2683   0.406E-02
   8 F= -.60923553E+03 E0= -.60870541E+03  d E =-.460837E-03  mag=     0.0050
       N       E                     dE             d eps       ncg     rms          rms(c)
DAV:   1    -0.570819667168E+03   -0.58055E-03   -0.45366E-02  4624   0.259E-01    0.652E-02
DAV:   2    -0.570820480823E+03   -0.81365E-03   -0.15918E-03  4880   0.118E-01    0.349E-01
DAV:   3    -0.570819777446E+03    0.70338E-03   -0.88207E-04  3227   0.112E-01    0.103E-01
DAV:   4    -0.570819820724E+03   -0.43278E-04   -0.15653E-04  2604   0.600E-02
   9 F= -.60923598E+03 E0= -.60870620E+03  d E =-.452187E-03  mag=     0.0052
       N       E                     dE             d eps       ncg     rms          rms(c)
DAV:   1    -0.570820645665E+03   -0.86822E-03   -0.10571E-01  4594   0.392E-01    0.116E-01
DAV:   2    -0.570833810884E+03   -0.13165E-01   -0.75409E-03  5672   0.421E-01    0.127E+00
DAV:   3    -0.570821104284E+03    0.12707E-01   -0.62692E-03  5409   0.419E-01    0.267E-01
DAV:   4    -0.570820735624E+03    0.36866E-03   -0.73263E-04  4009   0.930E-02    0.120E-01
DAV:   5    -0.570820761283E+03   -0.25659E-04   -0.34426E-04  2730   0.647E-02
  10 F= -.60923652E+03 E0= -.60870649E+03  d E =-.531924E-03  mag=     0.0056
       N       E                     dE             d eps       ncg     rms          rms(c)
DAV:   1    -0.570771727805E+03    0.49008E-01   -0.35397E+01  4472   0.701E+00    0.120E+00
DAV:   2    -0.570814622234E+03   -0.42894E-01   -0.48158E-01  4624   0.103E+00    0.135E+00
DAV:   3    -0.570852865197E+03   -0.38243E-01   -0.84124E-02  5056   0.112E+00    0.268E+00
DAV:   4    -0.570915706055E+03   -0.62841E-01   -0.12547E-01  5162   0.167E+00    0.382E+00
DAV:   5    -0.570834940427E+03    0.80766E-01   -0.98612E-02  5272   0.155E+00    0.214E+00
DAV:   6    -0.570808733561E+03    0.26207E-01   -0.42874E-02  5144   0.826E-01    0.106E+00
DAV:   7    -0.570808755021E+03   -0.21460E-04   -0.28696E-02  5097   0.611E-01    0.104E+00
DAV:   8    -0.570805338325E+03    0.34167E-02   -0.17877E-02  5120   0.482E-01    0.804E-01
DAV:   9    -0.570801448056E+03    0.38903E-02   -0.70116E-03  5120   0.302E-01    0.365E-01
DAV:  10    -0.570800707369E+03    0.74069E-03   -0.17205E-03  4825   0.136E-01    0.196E-01
DAV:  11    -0.570800586545E+03    0.12082E-03   -0.68808E-04  3472   0.946E-02    0.172E-01
DAV:  12    -0.570800458890E+03    0.12765E-03   -0.41927E-04  2968   0.767E-02    0.120E-01
DAV:  13    -0.570800414801E+03    0.44089E-04   -0.19237E-04  2664   0.488E-02
  11 F= -.60920814E+03 E0= -.60867895E+03  d E =0.283761E-01  mag=     0.0066
       N       E                     dE             d eps       ncg     rms          rms(c)
DAV:   1    -0.570818104119E+03   -0.17645E-01   -0.43026E+00  4488   0.249E+00    0.406E-01
DAV:   2    -0.570833123617E+03   -0.15019E-01   -0.10872E-01  4704   0.508E-01    0.103E+00
DAV:   3    -0.570832578583E+03    0.54503E-03   -0.14299E-02  4985   0.545E-01    0.917E-01
DAV:   4    -0.570832692973E+03   -0.11439E-03   -0.98446E-03  5024   0.505E-01    0.994E-01
DAV:   5    -0.570826437929E+03    0.62550E-02   -0.62230E-03  5024   0.298E-01    0.393E-01
DAV:   6    -0.570826641121E+03   -0.20319E-03   -0.39272E-03  5024   0.221E-01    0.446E-01
DAV:   7    -0.570826954180E+03   -0.31306E-03   -0.47105E-03  5056   0.243E-01    0.480E-01
DAV:   8    -0.570825773648E+03    0.11805E-02   -0.29908E-03  5000   0.195E-01    0.263E-01
DAV:   9    -0.570825498409E+03    0.27524E-03   -0.93911E-04  4128   0.109E-01    0.203E-01
DAV:  10    -0.570825274175E+03    0.22423E-03   -0.37017E-04  2728   0.703E-02    0.975E-02
DAV:  11    -0.570825232700E+03    0.41475E-04   -0.14047E-04  2664   0.467E-02
  12 F= -.60923390E+03 E0= -.60870464E+03  d E =-.257619E-01  mag=     0.0077
       N       E                     dE             d eps       ncg     rms          rms(c)
DAV:   1    -0.570826371886E+03   -0.10977E-02   -0.32527E+00  4521   0.214E+00    0.354E-01
DAV:   2    -0.570845256472E+03   -0.18885E-01   -0.51117E-02  4864   0.553E-01    0.146E+00
DAV:   3    -0.570832314340E+03    0.12942E-01   -0.15314E-02  4947   0.597E-01    0.615E-01
DAV:   4    -0.570833011202E+03   -0.69686E-03   -0.71300E-03  5001   0.343E-01    0.746E-01
DAV:   5    -0.570830555749E+03    0.24555E-02   -0.53167E-03  4961   0.264E-01    0.398E-01
DAV:   6    -0.570830030491E+03    0.52526E-03   -0.29093E-03  4977   0.208E-01    0.320E-01
DAV:   7    -0.570830221732E+03   -0.19124E-03   -0.26046E-03  4986   0.187E-01    0.362E-01
DAV:   8    -0.570829888638E+03    0.33309E-03   -0.19302E-03  4688   0.159E-01    0.272E-01
DAV:   9    -0.570829368266E+03    0.52037E-03   -0.72028E-04  3376   0.101E-01    0.914E-02
DAV:  10    -0.570829298961E+03    0.69305E-04   -0.14222E-04  2600   0.403E-02
  13 F= -.60924041E+03 E0= -.60871100E+03  d E =-.650351E-02  mag=     0.0087
       N       E                     dE             d eps       ncg     rms          rms(c)
DAV:   1    -0.570829730853E+03   -0.36259E-03   -0.95185E-01  4568   0.118E+00    0.197E-01
DAV:   2    -0.570832124722E+03   -0.23939E-02   -0.17811E-02  4656   0.218E-01    0.429E-01
DAV:   3    -0.570832055459E+03    0.69263E-04   -0.31280E-03  4987   0.221E-01    0.383E-01
DAV:   4    -0.570835750631E+03   -0.36952E-02   -0.35081E-03  4985   0.314E-01    0.808E-01
DAV:   5    -0.570831126165E+03    0.46245E-02   -0.23259E-03  4449   0.237E-01    0.184E-01
DAV:   6    -0.570831180586E+03   -0.54421E-04   -0.89058E-04  3920   0.115E-01
  14 F= -.60924179E+03 E0= -.60871167E+03  d E =-.138489E-02  mag=     0.0095
       N       E                     dE             d eps       ncg     rms          rms(c)
DAV:   1    -0.570833604364E+03   -0.24782E-02   -0.15483E+00  4500   0.134E+00    0.350E-01
DAV:   2    -0.570854566258E+03   -0.20962E-01   -0.38093E-02  5320   0.602E-01    0.162E+00
DAV:   3    -0.570846841159E+03    0.77251E-02   -0.24486E-02  5393   0.761E-01    0.128E+00
DAV:   4    -0.570835111043E+03    0.11730E-01   -0.65983E-03  5234   0.413E-01    0.320E-01
DAV:   5    -0.570835861202E+03   -0.75016E-03   -0.36829E-03  4907   0.219E-01    0.440E-01
DAV:   6    -0.570835445227E+03    0.41598E-03   -0.32715E-03  4996   0.216E-01    0.419E-01
DAV:   7    -0.570834658548E+03    0.78668E-03   -0.21709E-03  5016   0.166E-01    0.215E-01
DAV:   8    -0.570834626740E+03    0.31809E-04   -0.10274E-03  4368   0.121E-01    0.192E-01
DAV:   9    -0.570834477767E+03    0.14897E-03   -0.53061E-04  2984   0.836E-02    0.157E-01
DAV:  10    -0.570834321496E+03    0.15627E-03   -0.18285E-04  2664   0.484E-02    0.509E-02
DAV:  11    -0.570834308112E+03    0.13384E-04   -0.38438E-05  2506   0.198E-02
  15 F= -.60924366E+03 E0= -.60871392E+03  d E =-.186880E-02  mag=     0.0110
       N       E                     dE             d eps       ncg     rms          rms(c)
DAV:   1    -0.570828280325E+03    0.60412E-02   -0.13416E+01  4472   0.380E+00    0.845E-01
DAV:   2    -0.570840001428E+03   -0.11721E-01   -0.17216E-01  4808   0.447E-01    0.646E-01
DAV:   3    -0.570861519631E+03   -0.21518E-01   -0.34503E-02  5130   0.692E-01    0.186E+00
DAV:   4    -0.570873228049E+03   -0.11708E-01   -0.48617E-02  5395   0.996E-01    0.213E+00
DAV:   5    -0.570847947341E+03    0.25281E-01   -0.34590E-02  5432   0.950E-01    0.123E+00
DAV:   6    -0.570843041116E+03    0.49062E-02   -0.17109E-02  5168   0.531E-01    0.933E-01
DAV:   7    -0.570840418794E+03    0.26223E-02   -0.12161E-02  5178   0.401E-01    0.733E-01
DAV:   8    -0.570837041652E+03    0.33771E-02   -0.48715E-03  5160   0.257E-01    0.246E-01
DAV:   9    -0.570836665432E+03    0.37622E-03   -0.11409E-03  4824   0.120E-01    0.151E-01
DAV:  10    -0.570836592765E+03    0.72666E-04   -0.47396E-04  3096   0.803E-02
  16 F= -.60924316E+03 E0= -.60871346E+03  d E =0.498838E-03  mag=     0.0127
       N       E                     dE             d eps       ncg     rms          rms(c)
DAV:   1    -0.569611614565E+03    0.12251E+01   -0.86676E+01  4472   0.105E+01    0.239E+00
DAV:   2    -0.569866139379E+03   -0.25452E+00   -0.29723E+00  4712   0.173E+00    0.224E+00
DAV:   3    -0.570520381898E+03   -0.65424E+00   -0.46562E-01  5624   0.330E+00    0.942E+00
DAV:   4    -0.569947119715E+03    0.57326E+00   -0.84216E-01  5633   0.363E+00    0.430E+00
DAV:   5    -0.569842085962E+03    0.10503E+00   -0.15848E-01  5488   0.151E+00    0.241E+00
DAV:   6    -0.569877214312E+03   -0.35128E-01   -0.14065E-01  5224   0.139E+00    0.314E+00
DAV:   7    -0.569826326950E+03    0.50887E-01   -0.11598E-01  5178   0.131E+00    0.189E+00
DAV:   8    -0.569809221134E+03    0.17106E-01   -0.52113E-02  5120   0.794E-01    0.110E+00
DAV:   9    -0.569806810457E+03    0.24107E-02   -0.23779E-02  5056   0.574E-01    0.986E-01
DAV:  10    -0.569804804053E+03    0.20064E-02   -0.14460E-02  5064   0.443E-01    0.816E-01
DAV:  11    -0.569802018564E+03    0.27855E-02   -0.63245E-03  5056   0.301E-01    0.554E-01
DAV:  12    -0.569801072845E+03    0.94572E-03   -0.22196E-03  4960   0.180E-01    0.430E-01
DAV:  13    -0.569800404587E+03    0.66826E-03   -0.11593E-03  4328   0.133E-01    0.320E-01
DAV:  14    -0.569799844288E+03    0.56030E-03   -0.69607E-04  3240   0.996E-02    0.154E-01
DAV:  15    -0.569799654031E+03    0.19026E-03   -0.25596E-04  2720   0.633E-02    0.591E-02
DAV:  16    -0.569799647385E+03    0.66461E-05   -0.11067E-04  2592   0.342E-02
  17 F= -.60820907E+03 E0= -.60768002E+03  d E =0.103409E+01  mag=     0.0156
       N       E                     dE             d eps       ncg     rms          rms(c)
DAV:   1    -0.570602859541E+03   -0.80321E+00   -0.21929E+01  4472   0.482E+00    0.110E+00
DAV:   2    -0.570654215830E+03   -0.51356E-01   -0.68675E-01  4696   0.789E-01    0.104E+00
DAV:   3    -0.570730090243E+03   -0.75874E-01   -0.74832E-02  5457   0.119E+00    0.329E+00
DAV:   4    -0.570675383241E+03    0.54707E-01   -0.78737E-02  5472   0.146E+00    0.210E+00
DAV:   5    -0.570655627166E+03    0.19756E-01   -0.43553E-02  5448   0.897E-01    0.150E+00
DAV:   6    -0.570657897542E+03   -0.22704E-02   -0.45887E-02  5288   0.765E-01    0.151E+00
DAV:   7    -0.570647121049E+03    0.10776E-01   -0.28518E-02  5240   0.646E-01    0.955E-01
DAV:   8    -0.570642193103E+03    0.49279E-02   -0.11862E-02  5136   0.394E-01    0.524E-01
DAV:   9    -0.570640967951E+03    0.12252E-02   -0.44081E-03  5072   0.239E-01    0.359E-01
DAV:  10    -0.570640888447E+03    0.79504E-04   -0.26589E-03  5064   0.183E-01    0.342E-01
DAV:  11    -0.570640282185E+03    0.60626E-03   -0.12894E-03  4353   0.131E-01    0.177E-01
DAV:  12    -0.570640082258E+03    0.19993E-03   -0.37464E-04  2832   0.721E-02    0.977E-02
DAV:  13    -0.570640048200E+03    0.34058E-04   -0.13845E-04  2562   0.427E-02
  18 F= -.60904986E+03 E0= -.60852105E+03  d E =-.840792E+00  mag=     0.0185
       N       E                     dE             d eps       ncg     rms          rms(c)
DAV:   1    -0.570781491081E+03   -0.14141E+00   -0.73575E+00  4472   0.287E+00    0.604E-01
DAV:   2    -0.570802888311E+03   -0.21397E-01   -0.24762E-01  4656   0.523E-01    0.819E-01
DAV:   3    -0.570806667624E+03   -0.37793E-02   -0.21668E-02  5160   0.492E-01    0.114E+00
DAV:   4    -0.570819269868E+03   -0.12602E-01   -0.19908E-02  5452   0.689E-01    0.167E+00
DAV:   5    -0.570802308382E+03    0.16961E-01   -0.20658E-02  5552   0.723E-01    0.886E-01
DAV:   6    -0.570801110830E+03    0.11976E-02   -0.12168E-02  5320   0.432E-01    0.770E-01
DAV:   7    -0.570798371330E+03    0.27395E-02   -0.93862E-03  5251   0.363E-01    0.548E-01
DAV:   8    -0.570796794166E+03    0.15772E-02   -0.41785E-03  5144   0.227E-01    0.322E-01
DAV:   9    -0.570796251896E+03    0.54227E-03   -0.15813E-03  4978   0.142E-01    0.178E-01
DAV:  10    -0.570796371861E+03   -0.11997E-03   -0.88877E-04  3832   0.107E-01    0.232E-01
DAV:  11    -0.570796081199E+03    0.29066E-03   -0.52731E-04  3072   0.884E-02    0.117E-01
DAV:  12    -0.570796018247E+03    0.62952E-04   -0.17874E-04  2619   0.496E-02
  19 F= -.60920628E+03 E0= -.60867743E+03  d E =-.156416E+00  mag=     0.0217
       N       E                     dE             d eps       ncg     rms          rms(c)
DAV:   1    -0.570824279308E+03   -0.28198E-01   -0.96791E-01  4486   0.109E+00    0.229E-01
DAV:   2    -0.570828309951E+03   -0.40306E-02   -0.32302E-02  4800   0.247E-01    0.502E-01
DAV:   3    -0.570829660306E+03   -0.13504E-02   -0.48001E-03  5152   0.310E-01    0.634E-01
DAV:   4    -0.570828336549E+03    0.13238E-02   -0.32474E-03  5096   0.290E-01    0.511E-01
DAV:   5    -0.570826575212E+03    0.17613E-02   -0.22529E-03  4888   0.185E-01    0.229E-01
DAV:   6    -0.570826803482E+03   -0.22827E-03   -0.17875E-03  4914   0.140E-01    0.302E-01
DAV:   7    -0.570826710761E+03    0.92721E-04   -0.15100E-03  4898   0.139E-01    0.261E-01
DAV:   8    -0.570826251450E+03    0.45931E-03   -0.65128E-04  3352   0.101E-01    0.111E-01
DAV:   9    -0.570826200391E+03    0.51059E-04   -0.22586E-04  2672   0.527E-02
  20 F= -.60923650E+03 E0= -.60870771E+03  d E =-.302186E-01  mag=     0.0244
       N       E                     dE             d eps       ncg     rms          rms(c)
DAV:   1    -0.570839343299E+03   -0.13092E-01   -0.10005E+00  4584   0.116E+00    0.249E-01
DAV:   2    -0.570843808663E+03   -0.44654E-02   -0.35237E-02  4745   0.279E-01    0.521E-01
DAV:   3    -0.570842748948E+03    0.10597E-02   -0.49617E-03  5002   0.246E-01    0.365E-01
DAV:   4    -0.570845202823E+03   -0.24539E-02   -0.32993E-03  5104   0.266E-01    0.678E-01
DAV:   5    -0.570842514560E+03    0.26883E-02   -0.27780E-03  4993   0.270E-01    0.347E-01
DAV:   6    -0.570842034537E+03    0.48002E-03   -0.16864E-03  4840   0.172E-01    0.275E-01
DAV:   7    -0.570842103681E+03   -0.69144E-04   -0.17376E-03  4920   0.148E-01    0.290E-01
DAV:   8    -0.570841775885E+03    0.32780E-03   -0.10809E-03  4000   0.123E-01    0.197E-01
DAV:   9    -0.570841509203E+03    0.26668E-03   -0.35237E-04  2824   0.750E-02    0.812E-02
DAV:  10    -0.570841505064E+03    0.41388E-05   -0.15800E-04  2600   0.446E-02
  21 F= -.60925181E+03 E0= -.60872286E+03  d E =-.153182E-01  mag=     0.0278
       N       E                     dE             d eps       ncg     rms          rms(c)
DAV:   1    -0.570842366148E+03   -0.85694E-03   -0.60816E-02  4632   0.305E-01    0.744E-02
DAV:   2    -0.570843869728E+03   -0.15036E-02   -0.25718E-03  4984   0.163E-01    0.426E-01
DAV:   3    -0.570842970893E+03    0.89883E-03   -0.13417E-03  4107   0.185E-01    0.252E-01
DAV:   4    -0.570842569405E+03    0.40149E-03   -0.49645E-04  2976   0.111E-01    0.145E-01
DAV:   5    -0.570842464897E+03    0.10451E-03   -0.17877E-04  2608   0.446E-02    0.814E-02
DAV:   6    -0.570842441456E+03    0.23442E-04   -0.83140E-05  2529   0.323E-02
  22 F= -.60925282E+03 E0= -.60872370E+03  d E =-.100296E-02  mag=     0.0296
       N       E                     dE             d eps       ncg     rms          rms(c)
DAV:   1    -0.570842793172E+03   -0.32827E-03   -0.85290E-02  4576   0.360E-01    0.829E-02
DAV:   2    -0.570844956665E+03   -0.21635E-02   -0.28357E-03  5296   0.185E-01    0.529E-01
DAV:   3    -0.570843773523E+03    0.11831E-02   -0.22459E-03  4890   0.235E-01    0.345E-01
DAV:   4    -0.570842886082E+03    0.88744E-03   -0.42666E-04  2753   0.920E-02    0.811E-02
DAV:   5    -0.570842918955E+03   -0.32873E-04   -0.17892E-04  2688   0.456E-02
  23 F= -.60925341E+03 E0= -.60872412E+03  d E =-.595574E-03  mag=     0.0313
       N       E                     dE             d eps       ncg     rms          rms(c)
DAV:   1    -0.570843027383E+03   -0.14130E-03   -0.11520E-01  4576   0.415E-01    0.984E-02
DAV:   2    -0.570846287486E+03   -0.32601E-02   -0.36311E-03  5256   0.223E-01    0.663E-01
DAV:   3    -0.570844490182E+03    0.17973E-02   -0.34417E-03  5065   0.290E-01    0.417E-01
DAV:   4    -0.570843202654E+03    0.12875E-02   -0.60544E-04  2889   0.111E-01    0.127E-01
DAV:   5    -0.570843184217E+03    0.18437E-04   -0.23892E-04  2728   0.539E-02
  24 F= -.60925386E+03 E0= -.60872439E+03  d E =-.445189E-03  mag=     0.0331
       N       E                     dE             d eps       ncg     rms          rms(c)
DAV:   1    -0.570843044773E+03    0.15788E-03   -0.14667E-01  4584   0.471E-01    0.135E-01
DAV:   2    -0.570855742932E+03   -0.12698E-01   -0.84448E-03  5632   0.419E-01    0.126E+00
DAV:   3    -0.570845249013E+03    0.10494E-01   -0.88267E-03  5506   0.488E-01    0.512E-01
DAV:   4    -0.570843270511E+03    0.19785E-02   -0.12155E-03  4633   0.132E-01    0.152E-01
DAV:   5    -0.570843224013E+03    0.46498E-04   -0.35823E-04  2833   0.641E-02
  25 F= -.60925425E+03 E0= -.60872464E+03  d E =-.387267E-03  mag=     0.0348
       N       E                     dE             d eps       ncg     rms          rms(c)
DAV:   1    -0.570842394088E+03    0.87642E-03   -0.37078E-01  4584   0.736E-01    0.192E-01
DAV:   2    -0.570856644453E+03   -0.14250E-01   -0.13196E-02  5376   0.455E-01    0.138E+00
DAV:   3    -0.570846942046E+03    0.97024E-02   -0.12759E-02  5360   0.566E-01    0.731E-01
DAV:   4    -0.570842942526E+03    0.39995E-02   -0.22028E-03  4904   0.207E-01    0.217E-01
DAV:   5    -0.570842875034E+03    0.67492E-04   -0.94722E-04  4682   0.103E-01
  26 F= -.60925463E+03 E0= -.60872493E+03  d E =-.388149E-03  mag=     0.0369
       N       E                     dE             d eps       ncg     rms          rms(c)
DAV:   1    -0.570841376873E+03    0.15657E-02   -0.10471E+00  4560   0.118E+00    0.304E-01
DAV:   2    -0.570861006081E+03   -0.19629E-01   -0.27948E-02  5064   0.578E-01    0.160E+00
DAV:   3    -0.570852318872E+03    0.86872E-02   -0.21437E-02  5128   0.730E-01    0.115E+00
DAV:   4    -0.570842419642E+03    0.98992E-02   -0.55124E-03  4978   0.358E-01    0.267E-01
DAV:   5    -0.570842751251E+03   -0.33161E-03   -0.26245E-03  4875   0.175E-01    0.385E-01
DAV:   6    -0.570842691023E+03    0.60229E-04   -0.24581E-03  4930   0.182E-01    0.382E-01
DAV:   7    -0.570841795932E+03    0.89509E-03   -0.14204E-03  4912   0.138E-01    0.120E-01
DAV:   8    -0.570841780537E+03    0.15395E-04   -0.49767E-04  3624   0.840E-02
  27 F= -.60925508E+03 E0= -.60872539E+03  d E =-.442738E-03  mag=     0.0413
       N       E                     dE             d eps       ncg     rms          rms(c)
DAV:   1    -0.570817714548E+03    0.24081E-01   -0.17275E+01  4472   0.471E+00    0.889E-01
DAV:   2    -0.570839360986E+03   -0.21646E-01   -0.23054E-01  4624   0.705E-01    0.115E+00
DAV:   3    -0.570846376795E+03   -0.70158E-02   -0.44524E-02  5024   0.749E-01    0.155E+00
DAV:   4    -0.570858802548E+03   -0.12426E-01   -0.41309E-02  5012   0.831E-01    0.191E+00
DAV:   5    -0.570884185944E+03   -0.25383E-01   -0.49350E-02  5280   0.121E+00    0.264E+00
DAV:   6    -0.570834371223E+03    0.49815E-01   -0.29168E-02  5242   0.879E-01    0.739E-01
DAV:   7    -0.570834820973E+03   -0.44975E-03   -0.16174E-02  5097   0.444E-01    0.831E-01
DAV:   8    -0.570832345215E+03    0.24758E-02   -0.10143E-02  5072   0.359E-01    0.595E-01
DAV:   9    -0.570829969460E+03    0.23758E-02   -0.36261E-03  5080   0.219E-01    0.210E-01
DAV:  10    -0.570829715536E+03    0.25392E-03   -0.84440E-04  4280   0.102E-01    0.136E-01
DAV:  11    -0.570829676969E+03    0.38567E-04   -0.36023E-04  2824   0.712E-02
  28 F= -.60924944E+03 E0= -.60872020E+03  d E =0.563393E-02  mag=     0.0477
       N       E                     dE             d eps       ncg     rms          rms(c)
DAV:   1    -0.570803347687E+03    0.26368E-01   -0.84529E+00  4472   0.320E+00    0.636E-01
DAV:   2    -0.570818258257E+03   -0.14911E-01   -0.16653E-01  4680   0.495E-01    0.814E-01
DAV:   3    -0.570841594840E+03   -0.23337E-01   -0.28708E-02  5272   0.738E-01    0.192E+00
DAV:   4    -0.570842745560E+03   -0.11507E-02   -0.30722E-02  5316   0.990E-01    0.196E+00
DAV:   5    -0.570816536034E+03    0.26210E-01   -0.21177E-02  5360   0.646E-01    0.637E-01
DAV:   6    -0.570816500873E+03    0.35161E-04   -0.97764E-03  5240   0.383E-01    0.631E-01
DAV:   7    -0.570814990652E+03    0.15102E-02   -0.65235E-03  5178   0.334E-01    0.469E-01
DAV:   8    -0.570813868123E+03    0.11225E-02   -0.33563E-03  5121   0.218E-01    0.332E-01
DAV:   9    -0.570813313274E+03    0.55485E-03   -0.13186E-03  4528   0.126E-01    0.190E-01
DAV:  10    -0.570813125316E+03    0.18796E-03   -0.48219E-04  2947   0.805E-02    0.120E-01
DAV:  11    -0.570813062703E+03    0.62614E-04   -0.24176E-04  2673   0.602E-02
  29 F= -.60923533E+03 E0= -.60870638E+03  d E =0.141147E-01  mag=     0.0553
       N       E                     dE             d eps       ncg     rms          rms(c)
DAV:   1    -0.570834423855E+03   -0.21299E-01   -0.64043E+00  4568   0.287E+00    0.554E-01
DAV:   2    -0.570845754944E+03   -0.11331E-01   -0.12766E-01  4664   0.450E-01    0.719E-01
DAV:   3    -0.570868710191E+03   -0.22955E-01   -0.25039E-02  5248   0.710E-01    0.188E+00
DAV:   4    -0.570857988479E+03    0.10722E-01   -0.26868E-02  5240   0.842E-01    0.143E+00
DAV:   5    -0.570844381921E+03    0.13607E-01   -0.15055E-02  5241   0.524E-01    0.617E-01
DAV:   6    -0.570843898012E+03    0.48391E-03   -0.67088E-03  5200   0.324E-01    0.557E-01
DAV:   7    -0.570843841444E+03    0.56568E-04   -0.55838E-03  5104   0.291E-01    0.571E-01
DAV:   8    -0.570842042317E+03    0.17991E-02   -0.34895E-03  5120   0.223E-01    0.306E-01
DAV:   9    -0.570841480380E+03    0.56194E-03   -0.11624E-03  4456   0.125E-01    0.147E-01
DAV:  10    -0.570841446018E+03    0.34361E-04   -0.46637E-04  3024   0.793E-02
  30 F= -.60926038E+03 E0= -.60873146E+03  d E =-.250551E-01  mag=     0.0636
       N       E                     dE             d eps       ncg     rms          rms(c)
DAV:   1    -0.570838659810E+03    0.28206E-02   -0.36055E+00  4472   0.213E+00    0.415E-01
DAV:   2    -0.570845558346E+03   -0.68985E-02   -0.51336E-02  4728   0.380E-01    0.821E-01
DAV:   3    -0.570844513003E+03    0.10453E-02   -0.11230E-02  4929   0.402E-01    0.689E-01
DAV:   4    -0.570860916218E+03   -0.16403E-01   -0.12917E-02  5299   0.603E-01    0.158E+00
DAV:   5    -0.570844628821E+03    0.16287E-01   -0.13652E-02  5352   0.587E-01    0.686E-01
DAV:   6    -0.570842078676E+03    0.25501E-02   -0.52172E-03  5264   0.273E-01    0.425E-01
DAV:   7    -0.570841822090E+03    0.25659E-03   -0.36146E-03  5128   0.217E-01    0.351E-01
DAV:   8    -0.570841101674E+03    0.72042E-03   -0.16470E-03  4976   0.156E-01    0.208E-01
DAV:   9    -0.570840814957E+03    0.28672E-03   -0.56715E-04  2938   0.874E-02    0.114E-01
DAV:  10    -0.570840731683E+03    0.83274E-04   -0.19778E-04  2672   0.492E-02
  31 F= -.60926223E+03 E0= -.60873324E+03  d E =-.184219E-02  mag=     0.0725
       N       E                     dE             d eps       ncg     rms          rms(c)
DAV:   1    -0.570812960411E+03    0.27855E-01   -0.34992E+01  4472   0.616E+00    0.132E+00
DAV:   2    -0.570848179421E+03   -0.35219E-01   -0.42183E-01  4760   0.794E-01    0.143E+00
DAV:   3    -0.571063462923E+03   -0.21528E+00   -0.16883E-01  5496   0.194E+00    0.536E+00
DAV:   4    -0.570908776884E+03    0.15469E+00   -0.20527E-01  5504   0.218E+00    0.308E+00
DAV:   5    -0.570846852448E+03    0.61924E-01   -0.68443E-02  5512   0.110E+00    0.144E+00
DAV:   6    -0.570847321751E+03   -0.46930E-03   -0.39485E-02  5272   0.754E-01    0.141E+00
DAV:   7    -0.570839897863E+03    0.74239E-02   -0.29869E-02  5177   0.640E-01    0.943E-01
DAV:   8    -0.570834912974E+03    0.49849E-02   -0.12387E-02  5128   0.410E-01    0.605E-01
DAV:   9    -0.570832881391E+03    0.20316E-02   -0.40933E-03  4992   0.216E-01    0.302E-01
DAV:  10    -0.570832475759E+03    0.40563E-03   -0.11924E-03  4808   0.129E-01    0.212E-01
DAV:  11    -0.570832185001E+03    0.29076E-03   -0.57777E-04  3288   0.945E-02    0.138E-01
DAV:  12    -0.570832095333E+03    0.89668E-04   -0.33995E-04  2864   0.674E-02
  32 F= -.60926025E+03 E0= -.60873145E+03  d E =0.197362E-02  mag=     0.0851
       N       E                     dE             d eps       ncg     rms          rms(c)
DAV:   1    -0.569271345514E+03    0.15608E+01   -0.91980E+01  4472   0.103E+01    0.254E+00
DAV:   2    -0.569550697671E+03   -0.27935E+00   -0.32841E+00  4824   0.170E+00    0.242E+00
DAV:   3    -0.570260382961E+03   -0.70969E+00   -0.48789E-01  5545   0.341E+00    0.983E+00
DAV:   4    -0.569672368076E+03    0.58801E+00   -0.86066E-01  5610   0.376E+00    0.482E+00
DAV:   5    -0.569530052592E+03    0.14232E+00   -0.18598E-01  5528   0.167E+00    0.244E+00
DAV:   6    -0.569576308846E+03   -0.46256E-01   -0.14437E-01  5200   0.146E+00    0.329E+00
DAV:   7    -0.569510474803E+03    0.65834E-01   -0.10998E-01  5121   0.138E+00    0.174E+00
DAV:   8    -0.569499976102E+03    0.10499E-01   -0.59031E-02  5136   0.843E-01    0.150E+00
DAV:   9    -0.569489377824E+03    0.10598E-01   -0.29638E-02  5088   0.606E-01    0.802E-01
DAV:  10    -0.569487458137E+03    0.19197E-02   -0.10570E-02  5064   0.392E-01    0.670E-01
DAV:  11    -0.569486061543E+03    0.13966E-02   -0.46938E-03  4993   0.254E-01    0.531E-01
DAV:  12    -0.569485310108E+03    0.75143E-03   -0.17112E-03  4872   0.144E-01    0.412E-01
DAV:  13    -0.569484507087E+03    0.80302E-03   -0.88037E-04  3800   0.121E-01    0.285E-01
DAV:  14    -0.569484043321E+03    0.46377E-03   -0.63945E-04  3106   0.974E-02    0.148E-01
DAV:  15    -0.569483909143E+03    0.13418E-03   -0.27609E-04  2712   0.620E-02    0.869E-02
DAV:  16    -0.569483842318E+03    0.66824E-04   -0.12404E-04  2568   0.385E-02
  33 F= -.60790791E+03 E0= -.60737847E+03  d E =0.135234E+01  mag=     0.1046
       N       E                     dE             d eps       ncg     rms          rms(c)
DAV:   1    -0.570503385080E+03   -0.10195E+01   -0.22012E+01  4472   0.470E+00    0.111E+00
DAV:   2    -0.570559645318E+03   -0.56260E-01   -0.71518E-01  4792   0.753E-01    0.106E+00
DAV:   3    -0.570680393172E+03   -0.12075E+00   -0.84449E-02  5680   0.137E+00    0.412E+00
DAV:   4    -0.570563894676E+03    0.11650E+00   -0.96301E-02  5731   0.148E+00    0.140E+00
DAV:   5    -0.570565383527E+03   -0.14889E-02   -0.41952E-02  5465   0.813E-01    0.171E+00
DAV:   6    -0.570564955163E+03    0.42836E-03   -0.49127E-02  5200   0.767E-01    0.157E+00
DAV:   7    -0.570549348438E+03    0.15607E-01   -0.26601E-02  5144   0.636E-01    0.734E-01
DAV:   8    -0.570546208188E+03    0.31402E-02   -0.81070E-03  5048   0.325E-01    0.488E-01
DAV:   9    -0.570545443137E+03    0.76505E-03   -0.38281E-03  5024   0.220E-01    0.374E-01
DAV:  10    -0.570544884502E+03    0.55863E-03   -0.17937E-03  4848   0.155E-01    0.234E-01
DAV:  11    -0.570544611744E+03    0.27276E-03   -0.56493E-04  3266   0.916E-02    0.175E-01
DAV:  12    -0.570544449295E+03    0.16245E-03   -0.20592E-04  2688   0.540E-02    0.134E-01
DAV:  13    -0.570544275094E+03    0.17420E-03   -0.11892E-04  2592   0.431E-02    0.763E-02
DAV:  14    -0.570544164956E+03    0.11014E-03   -0.83769E-05  2616   0.398E-02    0.706E-02
DAV:  15    -0.570544095303E+03    0.69654E-04   -0.53246E-05  2497   0.246E-02
  34 F= -.60896835E+03 E0= -.60843955E+03  d E =-.106045E+01  mag=     0.1273
       N       E                     dE             d eps       ncg     rms          rms(c)
DAV:   1    -0.570795584394E+03   -0.25142E+00   -0.12139E+01  4472   0.357E+00    0.781E-01
DAV:   2    -0.570833034047E+03   -0.37450E-01   -0.39294E-01  4832   0.659E-01    0.114E+00
DAV:   3    -0.570868953912E+03   -0.35920E-01   -0.43658E-02  5352   0.101E+00    0.242E+00
DAV:   4    -0.570822692286E+03    0.46262E-01   -0.21598E-02  5378   0.757E-01    0.509E-01
DAV:   5    -0.570831584517E+03   -0.88922E-02   -0.20568E-02  5243   0.527E-01    0.124E+00
DAV:   6    -0.570826871914E+03    0.47126E-02   -0.22800E-02  5180   0.551E-01    0.102E+00
DAV:   7    -0.570820852906E+03    0.60190E-02   -0.98155E-03  5112   0.372E-01    0.453E-01
DAV:   8    -0.570820045950E+03    0.80696E-03   -0.33868E-03  5008   0.209E-01    0.357E-01
DAV:   9    -0.570819333194E+03    0.71276E-03   -0.16273E-03  4872   0.142E-01    0.172E-01
DAV:  10    -0.570819218896E+03    0.11430E-03   -0.58610E-04  3152   0.905E-02    0.170E-01
DAV:  11    -0.570819003491E+03    0.21540E-03   -0.29679E-04  2705   0.637E-02    0.940E-02
DAV:  12    -0.570818903219E+03    0.10027E-03   -0.10649E-04  2600   0.387E-02    0.641E-02
DAV:  13    -0.570818740855E+03    0.16236E-03   -0.66709E-05  2568   0.335E-02    0.518E-02
DAV:  14    -0.570818617205E+03    0.12365E-03   -0.40079E-05  2576   0.242E-02    0.605E-02
DAV:  15    -0.570818533032E+03    0.84172E-04   -0.18176E-05  2513   0.151E-02
  35 F= -.60924292E+03 E0= -.60871448E+03  d E =-.274569E+00  mag=     0.1555
       N       E                     dE             d eps       ncg     rms          rms(c)
DAV:   1    -0.570836152089E+03   -0.17535E-01   -0.67393E-01  4576   0.845E-01    0.179E-01
DAV:   2    -0.570840681556E+03   -0.45295E-02   -0.22489E-02  5296   0.260E-01    0.642E-01
DAV:   3    -0.570837853690E+03    0.28279E-02   -0.29868E-03  5011   0.256E-01    0.257E-01
DAV:   4    -0.570837642504E+03    0.21119E-03   -0.92978E-04  3952   0.113E-01    0.269E-01
DAV:   5    -0.570837222158E+03    0.42035E-03   -0.92498E-04  3448   0.111E-01    0.179E-01
DAV:   6    -0.570837630654E+03   -0.40850E-03   -0.12663E-03  4560   0.131E-01    0.316E-01
DAV:   7    -0.570836634393E+03    0.99626E-03   -0.89911E-04  3793   0.114E-01    0.922E-02
DAV:   8    -0.570836535970E+03    0.98423E-04   -0.17070E-04  2621   0.495E-02
  36 F= -.60926073E+03 E0= -.60873241E+03  d E =-.178086E-01  mag=     0.1739
       N       E                     dE             d eps       ncg     rms          rms(c)
DAV:   1    -0.570842220422E+03   -0.55860E-02   -0.25592E-01  4593   0.541E-01    0.123E-01
DAV:   2    -0.570843935344E+03   -0.17149E-02   -0.96977E-03  4976   0.180E-01    0.458E-01
DAV:   3    -0.570842850923E+03    0.10844E-02   -0.19306E-03  4932   0.166E-01    0.221E-01
DAV:   4    -0.570842892298E+03   -0.41375E-04   -0.57789E-04  2948   0.123E-01
  37 F= -.60926675E+03 E0= -.60873788E+03  d E =-.601843E-02  mag=     0.1811
       N       E                     dE             d eps       ncg     rms          rms(c)
DAV:   1    -0.570843923940E+03   -0.10730E-02   -0.63327E-02  4560   0.304E-01    0.150E-01
DAV:   2    -0.570849363188E+03   -0.54392E-02   -0.65076E-03  5187   0.309E-01    0.883E-01
DAV:   3    -0.570845878568E+03    0.34846E-02   -0.57618E-03  5332   0.363E-01    0.552E-01
DAV:   4    -0.570843691532E+03    0.21870E-02   -0.15541E-03  4064   0.192E-01    0.190E-01
DAV:   5    -0.570843569069E+03    0.12246E-03   -0.54948E-04  3060   0.834E-02    0.130E-01
DAV:   6    -0.570843324432E+03    0.24464E-03   -0.45043E-04  3008   0.782E-02    0.156E-01
DAV:   7    -0.570842960917E+03    0.36352E-03   -0.29920E-04  2771   0.664E-02    0.832E-02
DAV:   8    -0.570842812939E+03    0.14798E-03   -0.11934E-04  2624   0.405E-02    0.783E-02
DAV:   9    -0.570842654509E+03    0.15843E-03   -0.67538E-05  2521   0.308E-02    0.470E-02
DAV:  10    -0.570842556844E+03    0.97665E-04   -0.22688E-05  2496   0.174E-02
  38 F= -.60926605E+03 E0= -.60873756E+03  d E =0.698767E-03  mag=     0.2039
       N       E                     dE             d eps       ncg     rms          rms(c)
DAV:   1    -0.570843201973E+03   -0.54746E-03   -0.16275E-02  4536   0.157E-01    0.385E-02
DAV:   2    -0.570843112329E+03    0.89644E-04   -0.47456E-04  3104   0.569E-02
  39 F= -.60926633E+03 E0= -.60873760E+03  d E =-.280946E-03  mag=     0.2090
       N       E                     dE             d eps       ncg     rms          rms(c)
DAV:   1    -0.570844174894E+03   -0.97292E-03   -0.69072E-02  4562   0.330E-01    0.104E-01
DAV:   2    -0.570860032882E+03   -0.15858E-01   -0.78298E-03  5797   0.452E-01    0.143E+00
DAV:   3    -0.570843611520E+03    0.16421E-01   -0.58415E-03  5484   0.432E-01    0.106E-01
DAV:   4    -0.570843816709E+03   -0.20519E-03   -0.46306E-04  3456   0.630E-02    0.117E-01
DAV:   5    -0.570843569495E+03    0.24721E-03   -0.20452E-04  2760   0.487E-02    0.107E-01
DAV:   6    -0.570843397192E+03    0.17230E-03   -0.12046E-04  2608   0.403E-02    0.739E-02
DAV:   7    -0.570843151472E+03    0.24572E-03   -0.78677E-05  2552   0.341E-02    0.707E-02
DAV:   8    -0.570842919745E+03    0.23173E-03   -0.52886E-05  2569   0.274E-02    0.490E-02
DAV:   9    -0.570842788570E+03    0.13118E-03   -0.19857E-05  2512   0.159E-02    0.371E-02
DAV:  10    -0.570842618693E+03    0.16988E-03   -0.87126E-06  2528   0.104E-02    0.345E-02
DAV:  11    -0.570842426019E+03    0.19267E-03   -0.60111E-06  2536   0.914E-03    0.295E-02
DAV:  12    -0.570842274241E+03    0.15178E-03   -0.20325E-06  2512   0.480E-03    0.296E-02
DAV:  13    -0.570842258062E+03    0.16179E-04   -0.46697E-07  2416   0.128E-03
  40 F= -.60926478E+03 E0= -.60873618E+03  d E =0.155611E-02  mag=     0.2386
       N       E                     dE             d eps       ncg     rms          rms(c)
DAV:   1    -0.570843538441E+03   -0.12642E-02   -0.10235E-01  4576   0.397E-01    0.592E-02
DAV:   2    -0.570844365446E+03   -0.82700E-03   -0.18344E-03  4842   0.134E-01    0.375E-01
DAV:   3    -0.570843236151E+03    0.11293E-02   -0.85285E-04  3640   0.141E-01    0.112E-01
DAV:   4    -0.570843188826E+03    0.47325E-04   -0.15231E-04  2604   0.455E-02
  41 F= -.60926477E+03 E0= -.60873605E+03  d E =0.755295E-06  mag=     0.2488
       N       E                     dE             d eps       ncg     rms          rms(c)
DAV:   1    -0.570844748076E+03   -0.15119E-02   -0.25924E-01  4584   0.623E-01    0.118E-01
DAV:   2    -0.570848873616E+03   -0.41255E-02   -0.60729E-03  4932   0.269E-01    0.764E-01
DAV:   3    -0.570845609438E+03    0.32642E-02   -0.41918E-03  5032   0.317E-01    0.412E-01
DAV:   4    -0.570844522068E+03    0.10874E-02   -0.10018E-03  3848   0.149E-01    0.158E-01
DAV:   5    -0.570844393061E+03    0.12901E-03   -0.32415E-04  2666   0.620E-02    0.932E-02
DAV:   6    -0.570844088751E+03    0.30431E-03   -0.16766E-04  2640   0.486E-02    0.847E-02
DAV:   7    -0.570843787047E+03    0.30170E-03   -0.13770E-04  2648   0.463E-02    0.730E-02
DAV:   8    -0.570843417656E+03    0.36939E-03   -0.12884E-04  2616   0.431E-02    0.952E-02
DAV:   9    -0.570843132854E+03    0.28480E-03   -0.95271E-05  2544   0.362E-02    0.586E-02
DAV:  10    -0.570842969354E+03    0.16350E-03   -0.28226E-05  2497   0.191E-02    0.360E-02
DAV:  11    -0.570842857270E+03    0.11208E-03   -0.66154E-06  2472   0.773E-03    0.332E-02
DAV:  12    -0.570842768617E+03    0.88653E-04   -0.16097E-06  2416   0.309E-03
  42 F= -.60926283E+03 E0= -.60873418E+03  d E =0.194922E-02  mag=     0.2813
       N       E                     dE             d eps       ncg     rms          rms(c)
DAV:   1    -0.570843735626E+03   -0.87836E-03   -0.63744E+00  4472   0.308E+00    0.368E-01
DAV:   2    -0.570859839021E+03   -0.16103E-01   -0.90729E-02  4634   0.604E-01    0.117E+00
DAV:   3    -0.570857210307E+03    0.26287E-02   -0.17128E-02  4864   0.597E-01    0.101E+00
DAV:   4    -0.570852720231E+03    0.44901E-02   -0.84430E-03  4905   0.473E-01    0.681E-01
DAV:   5    -0.570851250202E+03    0.14700E-02   -0.54369E-03  4848   0.292E-01    0.591E-01
DAV:   6    -0.570849348335E+03    0.19019E-02   -0.25834E-03  4840   0.194E-01    0.254E-01
DAV:   7    -0.570849526449E+03   -0.17811E-03   -0.24012E-03  4880   0.181E-01    0.345E-01
DAV:   8    -0.570849189390E+03    0.33706E-03   -0.27874E-03  4936   0.185E-01    0.387E-01
DAV:   9    -0.570848075049E+03    0.11143E-02   -0.15798E-03  4528   0.138E-01    0.161E-01
DAV:  10    -0.570847821815E+03    0.25323E-03   -0.29756E-04  2688   0.621E-02    0.866E-02
DAV:  11    -0.570847620339E+03    0.20148E-03   -0.93677E-05  2520   0.340E-02    0.713E-02
DAV:  12    -0.570847380781E+03    0.23956E-03   -0.46628E-05  2544   0.257E-02    0.582E-02
DAV:  13    -0.570847161737E+03    0.21904E-03   -0.26552E-05  2544   0.181E-02    0.497E-02
DAV:  14    -0.570846971616E+03    0.19012E-03   -0.11775E-05  2520   0.110E-02    0.436E-02
DAV:  15    -0.570846788794E+03    0.18282E-03   -0.52443E-06  2496   0.664E-03    0.406E-02
DAV:  16    -0.570846631991E+03    0.15680E-03   -0.20480E-06  2504   0.375E-03    0.390E-02
DAV:  17    -0.570846747384E+03   -0.11539E-03   -0.67755E-07  2424   0.213E-03    0.397E-02
DAV:  18    -0.570847167794E+03   -0.42041E-03   -0.20061E-06  2552   0.534E-03    0.403E-02
DAV:  19    -0.570848159789E+03   -0.99200E-03   -0.78328E-06  2648   0.930E-03    0.445E-02
DAV:  20    -0.570849867822E+03   -0.17080E-02   -0.25492E-05  2736   0.148E-02    0.514E-02
DAV:  21    -0.570853086302E+03   -0.32185E-02   -0.60548E-05  2792   0.187E-02    0.549E-02
DAV:  22    -0.570854766825E+03   -0.16805E-02   -0.37399E-05  2744   0.149E-02    0.586E-02
DAV:  23    -0.570856957783E+03   -0.21910E-02   -0.47167E-05  2744   0.170E-02    0.603E-02
DAV:  24    -0.570859542496E+03   -0.25847E-02   -0.68980E-05  2792   0.199E-02    0.538E-02
DAV:  25    -0.570863287015E+03   -0.37445E-02   -0.15042E-04  3096   0.233E-02    0.464E-02
DAV:  26    -0.570864874405E+03   -0.15874E-02   -0.10784E-04  2848   0.210E-02    0.341E-02
DAV:  27    -0.570864762982E+03    0.11142E-03   -0.32779E-05  2840   0.116E-02    0.260E-02
DAV:  28    -0.570864657979E+03    0.10500E-03   -0.12440E-05  2632   0.797E-03    0.161E-02
DAV:  29    -0.570864754283E+03   -0.96304E-04   -0.37630E-06  2616   0.496E-03
  43 F= -.60927672E+03 E0= -.60874801E+03  d E =-.138965E-01  mag=    -0.0276
       N       E                     dE             d eps       ncg     rms          rms(c)
DAV:   1    -0.570865067093E+03   -0.40911E-03   -0.27676E+00  4561   0.202E+00    0.276E-01
DAV:   2    -0.570870561051E+03   -0.54940E-02   -0.47069E-02  4689   0.351E-01    0.533E-01
DAV:   3    -0.570871600174E+03   -0.10391E-02   -0.62839E-03  4984   0.325E-01    0.648E-01
DAV:   4    -0.570872387486E+03   -0.78731E-03   -0.51918E-03  4961   0.369E-01    0.716E-01
DAV:   5    -0.570869382136E+03    0.30054E-02   -0.34681E-03  4976   0.275E-01    0.409E-01
DAV:   6    -0.570868559626E+03    0.82251E-03   -0.17512E-03  4969   0.156E-01    0.209E-01
DAV:   7    -0.570868998300E+03   -0.43867E-03   -0.17752E-03  5008   0.155E-01    0.313E-01
DAV:   8    -0.570868666362E+03    0.33194E-03   -0.15787E-03  4849   0.142E-01    0.245E-01
DAV:   9    -0.570868300713E+03    0.36565E-03   -0.60547E-04  3016   0.877E-02    0.851E-02
DAV:  10    -0.570868272178E+03    0.28535E-04   -0.15599E-04  2584   0.431E-02
  44 F= -.60927570E+03 E0= -.60874712E+03  d E =0.101991E-02  mag=    -0.0281
       N       E                     dE             d eps       ncg     rms          rms(c)
DAV:   1    -0.570863860329E+03    0.44404E-02   -0.28117E+00  4530   0.205E+00    0.264E-01
DAV:   2    -0.570874630775E+03   -0.10770E-01   -0.46697E-02  4706   0.463E-01    0.103E+00
DAV:   3    -0.570871372176E+03    0.32586E-02   -0.11659E-02  4873   0.479E-01    0.747E-01
DAV:   4    -0.570868501282E+03    0.28709E-02   -0.46252E-03  4809   0.329E-01    0.451E-01
DAV:   5    -0.570867795268E+03    0.70601E-03   -0.24645E-03  4832   0.192E-01    0.358E-01
DAV:   6    -0.570867121633E+03    0.67363E-03   -0.12542E-03  4720   0.132E-01    0.194E-01
DAV:   7    -0.570867414890E+03   -0.29326E-03   -0.14736E-03  4944   0.136E-01    0.283E-01
DAV:   8    -0.570867203659E+03    0.21123E-03   -0.13659E-03  4728   0.129E-01    0.220E-01
DAV:   9    -0.570866865161E+03    0.33850E-03   -0.58197E-04  3170   0.904E-02    0.887E-02
DAV:  10    -0.570866829632E+03    0.35530E-04   -0.15264E-04  2562   0.411E-02
  45 F= -.60927943E+03 E0= -.60875085E+03  d E =-.372994E-02  mag=    -0.0296
       N       E                     dE             d eps       ncg     rms          rms(c)
DAV:   1    -0.570865654449E+03    0.12107E-02   -0.17936E-01  4562   0.499E-01    0.103E-01
DAV:   2    -0.570867108467E+03   -0.14540E-02   -0.62129E-03  4852   0.163E-01    0.397E-01
DAV:   3    -0.570866686205E+03    0.42226E-03   -0.16465E-03  4770   0.182E-01    0.297E-01
DAV:   4    -0.570866171334E+03    0.51487E-03   -0.61176E-04  2978   0.126E-01    0.166E-01
DAV:   5    -0.570866004828E+03    0.16651E-03   -0.30081E-04  2810   0.633E-02    0.968E-02
DAV:   6    -0.570865968838E+03    0.35990E-04   -0.24337E-04  2841   0.547E-02
  46 F= -.60927915E+03 E0= -.60875047E+03  d E =0.278827E-03  mag=    -0.0309
       N       E                     dE             d eps       ncg     rms          rms(c)
DAV:   1    -0.570868130632E+03   -0.21258E-02   -0.33656E-01  4601   0.712E-01    0.126E-01
DAV:   2    -0.570872101300E+03   -0.39707E-02   -0.89023E-03  4968   0.272E-01    0.722E-01
DAV:   3    -0.570870264686E+03    0.18366E-02   -0.44431E-03  5032   0.304E-01    0.473E-01
DAV:   4    -0.570868684695E+03    0.15800E-02   -0.13891E-03  4296   0.180E-01    0.169E-01
DAV:   5    -0.570868499105E+03    0.18559E-03   -0.37029E-04  2728   0.670E-02    0.964E-02
DAV:   6    -0.570868480133E+03    0.18972E-04   -0.20693E-04  2673   0.500E-02
  47 F= -.60927999E+03 E0= -.60875149E+03  d E =-.837786E-03  mag=    -0.0321
       N       E                     dE             d eps       ncg     rms          rms(c)
DAV:   1    -0.570869640180E+03   -0.11411E-02   -0.15605E-01  4537   0.469E-01    0.998E-02
DAV:   2    -0.570870651420E+03   -0.10112E-02   -0.27164E-03  4920   0.142E-01    0.376E-01
DAV:   3    -0.570870070872E+03    0.58055E-03   -0.12871E-03  4498   0.151E-01    0.226E-01
DAV:   4    -0.570870009086E+03    0.61787E-04   -0.53855E-04  2849   0.123E-01
  48 F= -.60928059E+03 E0= -.60875238E+03  d E =-.594739E-03  mag=    -0.0330
       N       E                     dE             d eps       ncg     rms          rms(c)
DAV:   1    -0.570846652053E+03    0.23419E-01   -0.29159E+01  4508   0.601E+00    0.120E+00
DAV:   2    -0.570879848664E+03   -0.33197E-01   -0.38524E-01  4570   0.857E-01    0.129E+00
DAV:   3    -0.570956099298E+03   -0.76251E-01   -0.88222E-02  5096   0.133E+00    0.345E+00
DAV:   4    -0.570958202700E+03   -0.21034E-02   -0.12679E-01  5297   0.178E+00    0.336E+00
DAV:   5    -0.570883909793E+03    0.74293E-01   -0.79664E-02  5320   0.126E+00    0.156E+00
DAV:   6    -0.570874983453E+03    0.89263E-02   -0.33655E-02  5256   0.704E-01    0.113E+00
DAV:   7    -0.570878356073E+03   -0.33726E-02   -0.26475E-02  5176   0.609E-01    0.125E+00
DAV:   8    -0.570868082461E+03    0.10274E-01   -0.15554E-02  5128   0.477E-01    0.495E-01
DAV:   9    -0.570866610346E+03    0.14721E-02   -0.37515E-03  5072   0.217E-01    0.267E-01
DAV:  10    -0.570866351794E+03    0.25855E-03   -0.15108E-03  4880   0.135E-01    0.201E-01
DAV:  11    -0.570866268975E+03    0.82819E-04   -0.77355E-04  3392   0.102E-01
  49 F= -.60927157E+03 E0= -.60874350E+03  d E =0.901520E-02  mag=    -0.0368
       N       E                     dE             d eps       ncg     rms          rms(c)
DAV:   1    -0.569611517120E+03    0.12548E+01   -0.88067E+01  4472   0.103E+01    0.216E+00
DAV:   2    -0.569845259763E+03   -0.23374E+00   -0.28682E+00  4720   0.172E+00    0.201E+00
DAV:   3    -0.570215628479E+03   -0.37037E+00   -0.35435E-01  5536   0.260E+00    0.721E+00
DAV:   4    -0.569919693427E+03    0.29594E+00   -0.48823E-01  5489   0.297E+00    0.400E+00
DAV:   5    -0.569840129218E+03    0.79564E-01   -0.15549E-01  5464   0.158E+00    0.264E+00
DAV:   6    -0.569847188625E+03   -0.70594E-02   -0.13707E-01  5232   0.136E+00    0.264E+00
DAV:   7    -0.569816607141E+03    0.30581E-01   -0.85273E-02  5201   0.121E+00    0.177E+00
DAV:   8    -0.569802921101E+03    0.13686E-01   -0.52678E-02  5216   0.818E-01    0.128E+00
DAV:   9    -0.569798116405E+03    0.48047E-02   -0.25759E-02  5160   0.590E-01    0.910E-01
DAV:  10    -0.569796464279E+03    0.16521E-02   -0.13408E-02  5152   0.428E-01    0.774E-01
DAV:  11    -0.569793355915E+03    0.31084E-02   -0.63511E-03  5113   0.293E-01    0.488E-01
DAV:  12    -0.569792083135E+03    0.12728E-02   -0.20134E-03  4904   0.165E-01    0.281E-01
DAV:  13    -0.569791671973E+03    0.41116E-03   -0.67991E-04  4016   0.100E-01    0.161E-01
DAV:  14    -0.569791589074E+03    0.82899E-04   -0.40842E-04  2824   0.789E-02
  50 F= -.60820335E+03 E0= -.60767530E+03  d E =0.106822E+01  mag=    -0.0426
       N       E                     dE             d eps       ncg     rms          rms(c)
DAV:   1    -0.570596015886E+03   -0.80434E+00   -0.21306E+01  4488   0.490E+00    0.112E+00
DAV:   2    -0.570656431446E+03   -0.60416E-01   -0.71747E-01  4784   0.896E-01    0.137E+00
DAV:   3    -0.570808896502E+03   -0.15247E+00   -0.11723E-01  5616   0.169E+00    0.460E+00
DAV:   4    -0.570666041562E+03    0.14285E+00   -0.13827E-01  5657   0.167E+00    0.191E+00
DAV:   5    -0.570645868589E+03    0.20173E-01   -0.35631E-02  5514   0.704E-01    0.113E+00
DAV:   6    -0.570650769084E+03   -0.49005E-02   -0.27167E-02  5217   0.623E-01    0.132E+00
DAV:   7    -0.570643273544E+03    0.74955E-02   -0.25201E-02  5153   0.612E-01    0.864E-01
DAV:   8    -0.570640072773E+03    0.32008E-02   -0.13172E-02  5136   0.436E-01    0.664E-01
DAV:   9    -0.570639834579E+03    0.23819E-03   -0.85992E-03  5128   0.335E-01    0.677E-01
DAV:  10    -0.570637302302E+03    0.25323E-02   -0.49527E-03  5120   0.258E-01    0.287E-01
DAV:  11    -0.570636810975E+03    0.49133E-03   -0.14121E-03  4858   0.138E-01    0.201E-01
DAV:  12    -0.570636622064E+03    0.18891E-03   -0.40641E-04  2872   0.703E-02    0.136E-01
DAV:  13    -0.570636549082E+03    0.72983E-04   -0.14359E-04  2569   0.421E-02
  51 F= -.60904660E+03 E0= -.60851865E+03  d E =-.843253E+00  mag=    -0.0493
       N       E                     dE             d eps       ncg     rms          rms(c)
DAV:   1    -0.570828431894E+03   -0.19181E+00   -0.11763E+01  4569   0.359E+00    0.825E-01
DAV:   2    -0.570864990113E+03   -0.36558E-01   -0.37745E-01  4721   0.671E-01    0.115E+00
DAV:   3    -0.570930171294E+03   -0.65181E-01   -0.62884E-02  5576   0.121E+00    0.309E+00
DAV:   4    -0.570869959849E+03    0.60211E-01   -0.51522E-02  5544   0.115E+00    0.153E+00
DAV:   5    -0.570856188603E+03    0.13771E-01   -0.21044E-02  5496   0.548E-01    0.739E-01
DAV:   6    -0.570862494391E+03   -0.63058E-02   -0.18136E-02  5249   0.494E-01    0.119E+00
DAV:   7    -0.570856197987E+03    0.62964E-02   -0.18749E-02  5241   0.487E-01    0.734E-01
DAV:   8    -0.570853154789E+03    0.30432E-02   -0.82491E-03  5152   0.314E-01    0.400E-01
DAV:   9    -0.570852858252E+03    0.29654E-03   -0.35265E-03  5112   0.219E-01    0.365E-01
DAV:  10    -0.570852601357E+03    0.25690E-03   -0.21352E-03  4987   0.168E-01    0.318E-01
DAV:  11    -0.570851919987E+03    0.68137E-03   -0.82537E-04  3600   0.111E-01    0.110E-01
DAV:  12    -0.570851816837E+03    0.10315E-03   -0.17311E-04  2608   0.486E-02    0.630E-02
DAV:  13    -0.570851777468E+03    0.39368E-04   -0.81272E-05  2561   0.323E-02
  52 F= -.60926127E+03 E0= -.60873322E+03  d E =-.214666E+00  mag=    -0.0579
       N       E                     dE             d eps       ncg     rms          rms(c)
DAV:   1    -0.570865605723E+03   -0.13789E-01   -0.30207E-01  4592   0.605E-01    0.140E-01
DAV:   2    -0.570868438525E+03   -0.28328E-02   -0.11606E-02  4995   0.210E-01    0.561E-01
DAV:   3    -0.570867165655E+03    0.12729E-02   -0.26058E-03  5032   0.232E-01    0.332E-01
DAV:   4    -0.570866763350E+03    0.40231E-03   -0.10414E-03  3456   0.163E-01    0.272E-01
DAV:   5    -0.570866199341E+03    0.56401E-03   -0.52691E-04  3032   0.871E-02    0.108E-01
DAV:   6    -0.570866241832E+03   -0.42491E-04   -0.53575E-04  3362   0.820E-02
  53 F= -.60927582E+03 E0= -.60874756E+03  d E =-.145513E-01  mag=    -0.0626
       N       E                     dE             d eps       ncg     rms          rms(c)
DAV:   1    -0.570873232140E+03   -0.70328E-02   -0.57683E-01  4516   0.875E-01    0.226E-01
DAV:   2    -0.570881194003E+03   -0.79619E-02   -0.24438E-02  5048   0.380E-01    0.959E-01
DAV:   3    -0.570878435874E+03    0.27581E-02   -0.89134E-03  5241   0.432E-01    0.707E-01
DAV:   4    -0.570875391132E+03    0.30447E-02   -0.35302E-03  5088   0.297E-01    0.368E-01
DAV:   5    -0.570874706181E+03    0.68495E-03   -0.15537E-03  4788   0.143E-01    0.261E-01
DAV:   6    -0.570874499946E+03    0.20624E-03   -0.13676E-03  4320   0.124E-01    0.231E-01
DAV:   7    -0.570874390141E+03    0.10981E-03   -0.99688E-04  4096   0.113E-01    0.193E-01
DAV:   8    -0.570874261038E+03    0.12910E-03   -0.60573E-04  3112   0.980E-02    0.171E-01
DAV:   9    -0.570874069864E+03    0.19117E-03   -0.33881E-04  2720   0.690E-02    0.919E-02
DAV:  10    -0.570873999484E+03    0.70380E-04   -0.11482E-04  2544   0.395E-02
  54 F= -.60928370E+03 E0= -.60875573E+03  d E =-.787850E-02  mag=    -0.0704
       N       E                     dE             d eps       ncg     rms          rms(c)
DAV:   1    -0.570874487057E+03   -0.41719E-03   -0.23895E-02  4648   0.195E-01    0.603E-02
DAV:   2    -0.570875407242E+03   -0.92019E-03   -0.15464E-03  4938   0.137E-01    0.351E-01
DAV:   3    -0.570875074770E+03    0.33247E-03   -0.11765E-03  3536   0.169E-01    0.292E-01
DAV:   4    -0.570874421379E+03    0.65339E-03   -0.31528E-04  2728   0.854E-02    0.450E-02
DAV:   5    -0.570874413618E+03    0.77610E-05   -0.89798E-05  2529   0.287E-02
  55 F= -.60928414E+03 E0= -.60875622E+03  d E =-.447962E-03  mag=    -0.0736
       N       E                     dE             d eps       ncg     rms          rms(c)
DAV:   1    -0.570874697028E+03   -0.27565E-03   -0.13511E-01  4576   0.459E-01    0.792E-02
DAV:   2    -0.570875642608E+03   -0.94558E-03   -0.29291E-03  4768   0.133E-01    0.341E-01
DAV:   3    -0.570875472478E+03    0.17013E-03   -0.13922E-03  4338   0.183E-01    0.301E-01
DAV:   4    -0.570874864151E+03    0.60833E-03   -0.36083E-04  2744   0.878E-02    0.136E-01
DAV:   5    -0.570874780986E+03    0.83166E-04   -0.20183E-04  2620   0.508E-02
  56 F= -.60928462E+03 E0= -.60875641E+03  d E =-.476689E-03  mag=    -0.0777
       N       E                     dE             d eps       ncg     rms          rms(c)
DAV:   1    -0.570874670893E+03    0.19326E-03   -0.27593E-02  4592   0.205E-01    0.809E-02
DAV:   2    -0.570879894431E+03   -0.52235E-02   -0.32901E-03  5114   0.268E-01    0.825E-01
DAV:   3    -0.570875403827E+03    0.44906E-02   -0.37472E-03  4762   0.310E-01    0.325E-01
DAV:   4    -0.570874595293E+03    0.80853E-03   -0.41698E-04  2768   0.848E-02    0.825E-02
DAV:   5    -0.570874580309E+03    0.14984E-04   -0.13577E-04  2634   0.352E-02
  57 F= -.60928461E+03 E0= -.60875658E+03  d E =0.159141E-04  mag=    -0.0816
       N       E                     dE             d eps       ncg     rms          rms(c)
DAV:   1    -0.570872664326E+03    0.19310E-02   -0.71582E-01  4522   0.102E+00    0.143E-01
DAV:   2    -0.570874902588E+03   -0.22383E-02   -0.11162E-02  4658   0.225E-01    0.456E-01
DAV:   3    -0.570876431636E+03   -0.15290E-02   -0.40064E-03  4928   0.310E-01    0.637E-01
DAV:   4    -0.570873565696E+03    0.28659E-02   -0.13082E-03  4362   0.171E-01    0.190E-01
DAV:   5    -0.570873613608E+03   -0.47911E-04   -0.58940E-04  2923   0.871E-02
  58 F= -.60928506E+03 E0= -.60875660E+03  d E =-.454258E-03  mag=    -0.0860
       N       E                     dE             d eps       ncg     rms          rms(c)
DAV:   1    -0.570871704071E+03    0.18616E-02   -0.36305E-01  4500   0.737E-01    0.183E-01
DAV:   2    -0.570898134871E+03   -0.26431E-01   -0.18781E-02  5536   0.592E-01    0.185E+00
DAV:   3    -0.570874617399E+03    0.23517E-01   -0.17254E-02  5472   0.652E-01    0.573E-01
DAV:   4    -0.570872035551E+03    0.25818E-02   -0.19547E-03  4904   0.173E-01    0.166E-01
DAV:   5    -0.570872031156E+03    0.43949E-05   -0.72781E-04  4546   0.899E-02
  59 F= -.60928486E+03 E0= -.60875658E+03  d E =0.194900E-03  mag=    -0.0910
       N       E                     dE             d eps       ncg     rms          rms(c)
DAV:   1    -0.570871757946E+03    0.27761E-03   -0.11039E-01  4553   0.416E-01    0.128E-01
DAV:   2    -0.570878534359E+03   -0.67764E-02   -0.70245E-03  5169   0.329E-01    0.956E-01
DAV:   3    -0.570874273482E+03    0.42609E-02   -0.63247E-03  5147   0.390E-01    0.563E-01
DAV:   4    -0.570871798134E+03    0.24753E-02   -0.15588E-03  4224   0.195E-01    0.136E-01
DAV:   5    -0.570871712714E+03    0.85421E-04   -0.34721E-04  2700   0.611E-02
  60 F= -.60928504E+03 E0= -.60875685E+03  d E =-.173164E-03  mag=    -0.0953
       N       E                     dE             d eps       ncg     rms          rms(c)
DAV:   1    -0.570870217647E+03    0.15805E-02   -0.39439E-01  4584   0.769E-01    0.147E-01
DAV:   2    -0.570874875418E+03   -0.46578E-02   -0.88861E-03  4884   0.286E-01    0.807E-01
DAV:   3    -0.570872166682E+03    0.27087E-02   -0.53807E-03  4976   0.328E-01    0.476E-01
DAV:   4    -0.570870686218E+03    0.14805E-02   -0.15951E-03  4336   0.194E-01    0.221E-01
DAV:   5    -0.570870469191E+03    0.21703E-03   -0.65452E-04  3576   0.962E-02    0.159E-01
DAV:   6    -0.570870343753E+03    0.12544E-03   -0.39039E-04  2824   0.733E-02    0.138E-01
DAV:   7    -0.570870166083E+03    0.17767E-03   -0.28767E-04  2660   0.652E-02    0.843E-02
DAV:   8    -0.570870115558E+03    0.50526E-04   -0.21943E-04  2657   0.557E-02
  61 F= -.60928501E+03 E0= -.60875710E+03  d E =0.326515E-04  mag=    -0.1060
       N       E                     dE             d eps       ncg     rms          rms(c)
DAV:   1    -0.570845355456E+03    0.24811E-01   -0.11769E+01  4516   0.418E+00    0.572E-01
DAV:   2    -0.570876067066E+03   -0.30712E-01   -0.17457E-01  4657   0.825E-01    0.164E+00
DAV:   3    -0.570872289536E+03    0.37775E-02   -0.36925E-02  4920   0.821E-01    0.140E+00
DAV:   4    -0.570868515029E+03    0.37745E-02   -0.20833E-02  4944   0.731E-01    0.122E+00
DAV:   5    -0.570862334539E+03    0.61805E-02   -0.14633E-02  4960   0.517E-01    0.906E-01
DAV:   6    -0.570857244914E+03    0.50896E-02   -0.64749E-03  4904   0.321E-01    0.377E-01
DAV:   7    -0.570859478125E+03   -0.22332E-02   -0.66142E-03  4984   0.303E-01    0.704E-01
DAV:   8    -0.570858410603E+03    0.10675E-02   -0.73545E-03  4970   0.300E-01    0.564E-01
DAV:   9    -0.570856102258E+03    0.23083E-02   -0.27494E-03  5000   0.199E-01    0.144E-01
DAV:  10    -0.570855976894E+03    0.12536E-03   -0.45065E-04  3128   0.693E-02    0.108E-01
DAV:  11    -0.570855898745E+03    0.78149E-04   -0.18983E-04  2608   0.495E-02
  62 F= -.60927936E+03 E0= -.60875142E+03  d E =0.564841E-02  mag=    -0.1215
       N       E                     dE             d eps       ncg     rms          rms(c)
DAV:   1    -0.570856123851E+03   -0.14696E-03   -0.13414E+00  4560   0.134E+00    0.235E-01
DAV:   2    -0.570859395224E+03   -0.32714E-02   -0.29789E-02  4697   0.246E-01    0.461E-01
DAV:   3    -0.570859641985E+03   -0.24676E-03   -0.40120E-03  5072   0.252E-01    0.483E-01
DAV:   4    -0.570861733660E+03   -0.20917E-02   -0.34731E-03  5017   0.308E-01    0.714E-01
DAV:   5    -0.570858182575E+03    0.35511E-02   -0.29267E-03  4900   0.253E-01    0.266E-01
DAV:   6    -0.570858015901E+03    0.16667E-03   -0.14138E-03  4833   0.144E-01    0.236E-01
DAV:   7    -0.570857775530E+03    0.24037E-03   -0.11781E-03  4840   0.129E-01    0.212E-01
DAV:   8    -0.570857477611E+03    0.29792E-03   -0.69354E-04  3376   0.101E-01    0.145E-01
DAV:   9    -0.570857287003E+03    0.19061E-03   -0.24823E-04  2672   0.597E-02    0.693E-02
DAV:  10    -0.570857226034E+03    0.60969E-04   -0.94936E-05  2536   0.334E-02
  63 F= -.60928219E+03 E0= -.60875443E+03  d E =-.283185E-02  mag=    -0.1384
       N       E                     dE             d eps       ncg     rms          rms(c)
DAV:   1    -0.570860971304E+03   -0.36843E-02   -0.33532E+00  4560   0.223E+00    0.307E-01
DAV:   2    -0.570871823098E+03   -0.10852E-01   -0.51743E-02  4699   0.475E-01    0.106E+00
DAV:   3    -0.570868808298E+03    0.30148E-02   -0.12313E-02  4888   0.489E-01    0.782E-01
DAV:   4    -0.570866753015E+03    0.20553E-02   -0.56012E-03  4848   0.385E-01    0.608E-01
DAV:   5    -0.570865293311E+03    0.14597E-02   -0.37447E-03  4857   0.259E-01    0.463E-01
DAV:   6    -0.570863928199E+03    0.13651E-02   -0.17759E-03  4811   0.166E-01    0.193E-01
DAV:   7    -0.570864242555E+03   -0.31436E-03   -0.16920E-03  4920   0.154E-01    0.309E-01
DAV:   8    -0.570863929347E+03    0.31321E-03   -0.17171E-03  4875   0.150E-01    0.294E-01
DAV:   9    -0.570863305703E+03    0.62364E-03   -0.76530E-04  3312   0.101E-01    0.971E-02
DAV:  10    -0.570863222619E+03    0.83083E-04   -0.15218E-04  2537   0.395E-02
  64 F= -.60928359E+03 E0= -.60875573E+03  d E =-.140335E-02  mag=    -0.1567
       N       E                     dE             d eps       ncg     rms          rms(c)
DAV:   1    -0.570861318269E+03    0.19874E-02   -0.13407E+00  4568   0.144E+00    0.178E-01
DAV:   2    -0.570864493433E+03   -0.31752E-02   -0.24986E-02  4650   0.278E-01    0.492E-01
DAV:   3    -0.570863227922E+03    0.12655E-02   -0.33797E-03  4804   0.206E-01    0.243E-01
DAV:   4    -0.570864818589E+03   -0.15907E-02   -0.17733E-03  4624   0.203E-01    0.528E-01
DAV:   5    -0.570863007047E+03    0.18115E-02   -0.13564E-03  3676   0.189E-01    0.248E-01
DAV:   6    -0.570862709093E+03    0.29795E-03   -0.62157E-04  3032   0.108E-01    0.166E-01
DAV:   7    -0.570862596745E+03    0.11235E-03   -0.56324E-04  3240   0.864E-02    0.184E-01
DAV:   8    -0.570862343680E+03    0.25306E-03   -0.60515E-04  3032   0.894E-02    0.168E-01
DAV:   9    -0.570862027693E+03    0.31599E-03   -0.30897E-04  2704   0.658E-02    0.681E-02
DAV:  10    -0.570861949155E+03    0.78538E-04   -0.96261E-05  2544   0.338E-02
  65 F= -.60928025E+03 E0= -.60875207E+03  d E =0.334235E-02  mag=    -0.1774
       N       E                     dE             d eps       ncg     rms          rms(c)
DAV:   1    -0.570861268664E+03    0.75903E-03   -0.10421E+00  4500   0.126E+00    0.161E-01
DAV:   2    -0.570864740043E+03   -0.34714E-02   -0.18310E-02  4681   0.277E-01    0.593E-01
DAV:   3    -0.570864049975E+03    0.69007E-03   -0.43247E-03  4848   0.299E-01    0.502E-01
DAV:   4    -0.570862484019E+03    0.15660E-02   -0.16667E-03  4640   0.197E-01    0.240E-01
DAV:   5    -0.570862330724E+03    0.15330E-03   -0.87486E-04  3649   0.115E-01    0.229E-01
DAV:   6    -0.570861908632E+03    0.42209E-03   -0.38371E-04  2907   0.767E-02    0.105E-01
DAV:   7    -0.570861923473E+03   -0.14840E-04   -0.46571E-04  3025   0.811E-02
  66 F= -.60928251E+03 E0= -.60875468E+03  d E =-.225712E-02  mag=    -0.1949
       N       E                     dE             d eps       ncg     rms          rms(c)
DAV:   1    -0.570860409761E+03    0.14989E-02   -0.42248E-01  4561   0.755E-01    0.195E-01
DAV:   2    -0.570865503792E+03   -0.50940E-02   -0.11512E-02  4973   0.328E-01    0.867E-01
DAV:   3    -0.570860642025E+03    0.48618E-02   -0.69104E-03  5028   0.300E-01    0.276E-01
DAV:   4    -0.570861261479E+03   -0.61945E-03   -0.14125E-03  4689   0.176E-01    0.382E-01
DAV:   5    -0.570860728897E+03    0.53258E-03   -0.13195E-03  3801   0.184E-01    0.317E-01
DAV:   6    -0.570860048409E+03    0.68049E-03   -0.77271E-04  3200   0.119E-01    0.189E-01
DAV:   7    -0.570859721268E+03    0.32714E-03   -0.45360E-04  2995   0.809E-02    0.105E-01
DAV:   8    -0.570859535038E+03    0.18623E-03   -0.23561E-04  2696   0.611E-02    0.893E-02
DAV:   9    -0.570859275158E+03    0.25988E-03   -0.10846E-04  2568   0.422E-02    0.702E-02
DAV:  10    -0.570859178502E+03    0.96656E-04   -0.37953E-05  2528   0.229E-02
  67 F= -.60928106E+03 E0= -.60875308E+03  d E =0.144496E-02  mag=    -0.2197
       N       E                     dE             d eps       ncg     rms          rms(c)
DAV:   1    -0.569969112182E+03    0.89016E+00   -0.12091E+02  4472   0.135E+01    0.200E+00
DAV:   2    -0.570281674087E+03   -0.31256E+00   -0.25903E+00  4712   0.256E+00    0.412E+00
DAV:   3    -0.570329500797E+03   -0.47827E-01   -0.35643E-01  4944   0.239E+00    0.475E+00
DAV:   4    -0.570448327040E+03   -0.11883E+00   -0.36449E-01  5072   0.289E+00    0.606E+00
DAV:   5    -0.570210295178E+03    0.23803E+00   -0.24352E-01  5144   0.219E+00    0.279E+00
DAV:   6    -0.570166117663E+03    0.44178E-01   -0.64501E-02  5009   0.975E-01    0.137E+00
DAV:   7    -0.570183156716E+03   -0.17039E-01   -0.64494E-02  5032   0.965E-01    0.206E+00
DAV:   8    -0.570173131201E+03    0.10026E-01   -0.78065E-02  5064   0.102E+00    0.194E+00
DAV:   9    -0.570153725149E+03    0.19406E-01   -0.42898E-02  5048   0.702E-01    0.894E-01
DAV:  10    -0.570149908361E+03    0.38168E-02   -0.10992E-02  5000   0.383E-01    0.580E-01
DAV:  11    -0.570148326978E+03    0.15814E-02   -0.46576E-03  5000   0.266E-01    0.408E-01
DAV:  12    -0.570147566290E+03    0.76069E-03   -0.17817E-03  4896   0.164E-01    0.271E-01
DAV:  13    -0.570147277175E+03    0.28911E-03   -0.80240E-04  3576   0.101E-01    0.216E-01
DAV:  14    -0.570146969332E+03    0.30784E-03   -0.48689E-04  2880   0.797E-02    0.164E-01
DAV:  15    -0.570146645971E+03    0.32336E-03   -0.37373E-04  2752   0.704E-02    0.133E-01
DAV:  16    -0.570146342197E+03    0.30377E-03   -0.20636E-04  2696   0.529E-02    0.797E-02
DAV:  17    -0.570146128705E+03    0.21349E-03   -0.72542E-05  2592   0.294E-02    0.638E-02
DAV:  18    -0.570145909892E+03    0.21881E-03   -0.33266E-05  2576   0.216E-02    0.456E-02
DAV:  19    -0.570145779451E+03    0.13044E-03   -0.14585E-05  2536   0.128E-02    0.390E-02
DAV:  20    -0.570145653274E+03    0.12618E-03   -0.53372E-06  2528   0.766E-03    0.344E-02
DAV:  21    -0.570145494162E+03    0.15911E-03   -0.17090E-06  2521   0.352E-03    0.342E-02
DAV:  22    -0.570145470863E+03    0.23300E-04   -0.42679E-07  2432   0.113E-03
  68 F= -.60854209E+03 E0= -.60801257E+03  d E =0.738970E+00  mag=    -0.2768
       N       E                     dE             d eps       ncg     rms          rms(c)
DAV:   1    -0.570685195683E+03   -0.53970E+00   -0.53611E+01  4486   0.745E+00    0.180E+00
DAV:   2    -0.570824556797E+03   -0.13936E+00   -0.17648E+00  4784   0.119E+00    0.148E+00
DAV:   3    -0.571085860651E+03   -0.26130E+00   -0.20039E-01  5624   0.202E+00    0.598E+00
DAV:   4    -0.570841899422E+03    0.24396E+00   -0.23165E-01  5632   0.228E+00    0.235E+00
DAV:   5    -0.570853979768E+03   -0.12080E-01   -0.90375E-02  5440   0.127E+00    0.299E+00
DAV:   6    -0.570835196825E+03    0.18783E-01   -0.12411E-01  5168   0.122E+00    0.226E+00
DAV:   7    -0.570803855839E+03    0.31341E-01   -0.62796E-02  5168   0.941E-01    0.116E+00
DAV:   8    -0.570795580644E+03    0.82752E-02   -0.20190E-02  5000   0.486E-01    0.550E-01
DAV:   9    -0.570794529811E+03    0.10508E-02   -0.62902E-03  4936   0.277E-01    0.408E-01
DAV:  10    -0.570793781729E+03    0.74808E-03   -0.27151E-03  4936   0.194E-01    0.314E-01
DAV:  11    -0.570793314132E+03    0.46760E-03   -0.11724E-03  4208   0.125E-01    0.210E-01
DAV:  12    -0.570793033866E+03    0.28027E-03   -0.51757E-04  2976   0.870E-02    0.158E-01
DAV:  13    -0.570792673483E+03    0.36038E-03   -0.34392E-04  2696   0.724E-02    0.133E-01
DAV:  14    -0.570792343704E+03    0.32978E-03   -0.22989E-04  2704   0.599E-02    0.109E-01
DAV:  15    -0.570792087430E+03    0.25627E-03   -0.10575E-04  2528   0.382E-02    0.614E-02
DAV:  16    -0.570791893134E+03    0.19430E-03   -0.32045E-05  2520   0.195E-02    0.485E-02
DAV:  17    -0.570791590691E+03    0.30244E-03   -0.11935E-05  2560   0.125E-02    0.409E-02
DAV:  18    -0.570791406385E+03    0.18431E-03   -0.43791E-06  2560   0.708E-03    0.379E-02
DAV:  19    -0.570791372250E+03    0.34135E-04   -0.11041E-06  2464   0.181E-03
  69 F= -.60918901E+03 E0= -.60866103E+03  d E =-.646919E+00  mag=    -0.3396
       N       E                     dE             d eps       ncg     rms          rms(c)
DAV:   1    -0.570844155004E+03   -0.52749E-01   -0.16432E+00  4479   0.134E+00    0.292E-01
DAV:   2    -0.570847985288E+03   -0.38303E-02   -0.54896E-02  4768   0.210E-01    0.249E-01
DAV:   3    -0.570849763538E+03   -0.17782E-02   -0.37061E-03  5216   0.216E-01    0.611E-01
DAV:   4    -0.570848934645E+03    0.82889E-03   -0.38344E-03  5042   0.314E-01    0.559E-01
DAV:   5    -0.570847619623E+03    0.13150E-02   -0.27367E-03  4744   0.260E-01    0.433E-01
DAV:   6    -0.570847251820E+03    0.36780E-03   -0.32206E-03  5024   0.202E-01    0.444E-01
DAV:   7    -0.570845704219E+03    0.15476E-02   -0.20621E-03  4888   0.170E-01    0.216E-01
DAV:   8    -0.570845282598E+03    0.42162E-03   -0.66690E-04  3416   0.955E-02    0.135E-01
DAV:   9    -0.570844979828E+03    0.30277E-03   -0.26817E-04  2666   0.615E-02    0.108E-01
DAV:  10    -0.570844585032E+03    0.39480E-03   -0.11667E-04  2608   0.419E-02    0.752E-02
DAV:  11    -0.570844312607E+03    0.27243E-03   -0.42984E-05  2513   0.247E-02    0.568E-02
DAV:  12    -0.570844097089E+03    0.21552E-03   -0.11526E-05  2521   0.128E-02    0.468E-02
DAV:  13    -0.570843877650E+03    0.21944E-03   -0.32513E-06  2520   0.570E-03    0.449E-02
DAV:  14    -0.570843811846E+03    0.65804E-04   -0.83005E-07  2386   0.201E-03
  70 F= -.60924128E+03 E0= -.60871310E+03  d E =-.522705E-01  mag=    -0.3911
       N       E                     dE             d eps       ncg     rms          rms(c)
DAV:   1    -0.570857422479E+03   -0.13545E-01   -0.47725E-01  4472   0.761E-01    0.167E-01
DAV:   2    -0.570858177780E+03   -0.75530E-03   -0.15453E-02  4728   0.140E-01    0.238E-01
DAV:   3    -0.570859698268E+03   -0.15205E-02   -0.20414E-03  4328   0.216E-01    0.528E-01
DAV:   4    -0.570857354976E+03    0.23433E-02   -0.14670E-03  3659   0.196E-01    0.249E-01
DAV:   5    -0.570856986514E+03    0.36846E-03   -0.77635E-04  3216   0.986E-02    0.179E-01
DAV:   6    -0.570856548595E+03    0.43792E-03   -0.77866E-04  3488   0.104E-01    0.239E-01
DAV:   7    -0.570855659687E+03    0.88891E-03   -0.67997E-04  3160   0.102E-01    0.157E-01
DAV:   8    -0.570855190470E+03    0.46922E-03   -0.23921E-04  2648   0.579E-02    0.949E-02
DAV:   9    -0.570854875709E+03    0.31476E-03   -0.94355E-05  2576   0.331E-02    0.712E-02
DAV:  10    -0.570854305010E+03    0.57070E-03   -0.42528E-05  2600   0.250E-02    0.610E-02
DAV:  11    -0.570853963928E+03    0.34108E-03   -0.17653E-05  2521   0.148E-02    0.529E-02
DAV:  12    -0.570853744969E+03    0.21896E-03   -0.44263E-06  2528   0.633E-03    0.503E-02
DAV:  13    -0.570853766229E+03   -0.21260E-04   -0.96488E-07  2416   0.140E-03
  71 F= -.60925130E+03 E0= -.60872314E+03  d E =-.100169E-01  mag=    -0.4463
       N       E                     dE             d eps       ncg     rms          rms(c)
DAV:   1    -0.570858428222E+03   -0.46833E-02   -0.23562E-01  4560   0.579E-01    0.113E-01
DAV:   2    -0.570858302246E+03    0.12598E-03   -0.62914E-03  4640   0.117E-01    0.240E-01
DAV:   3    -0.570858370863E+03   -0.68617E-04   -0.98843E-04  3339   0.151E-01
  72 F= -.60925614E+03 E0= -.60872852E+03  d E =-.484070E-02  mag=    -0.4618
       N       E                     dE             d eps       ncg     rms          rms(c)
DAV:   1    -0.570859699258E+03   -0.13970E-02   -0.26581E-01  4568   0.654E-01    0.227E-01
DAV:   2    -0.570884210332E+03   -0.24511E-01   -0.21924E-02  5329   0.618E-01    0.183E+00
DAV:   3    -0.570864157100E+03    0.20053E-01   -0.19701E-02  5352   0.697E-01    0.897E-01
DAV:   4    -0.570858982073E+03    0.51750E-02   -0.40191E-03  5136   0.289E-01    0.193E-01
DAV:   5    -0.570858376684E+03    0.60539E-03   -0.10723E-03  4649   0.108E-01    0.213E-01
DAV:   6    -0.570857407104E+03    0.96958E-03   -0.70680E-04  3400   0.968E-02    0.193E-01
DAV:   7    -0.570856797260E+03    0.60984E-03   -0.48354E-04  2904   0.806E-02    0.153E-01
DAV:   8    -0.570855956498E+03    0.84076E-03   -0.25772E-04  2656   0.628E-02    0.111E-01
DAV:   9    -0.570855152827E+03    0.80367E-03   -0.10541E-04  2616   0.454E-02    0.746E-02
DAV:  10    -0.570854774213E+03    0.37861E-03   -0.36490E-05  2512   0.223E-02    0.642E-02
DAV:  11    -0.570854181929E+03    0.59228E-03   -0.19668E-05  2560   0.158E-02    0.611E-02
DAV:  12    -0.570853444253E+03    0.73768E-03   -0.90538E-06  2544   0.100E-02    0.579E-02
DAV:  13    -0.570853364405E+03    0.79848E-04   -0.19560E-06  2520   0.252E-03
  73 F= -.60925163E+03 E0= -.60872363E+03  d E =0.450691E-02  mag=    -0.5204
       N       E                     dE             d eps       ncg     rms          rms(c)
DAV:   1    -0.570854798992E+03   -0.13547E-02   -0.48815E-01  4608   0.870E-01    0.116E-01
DAV:   2    -0.570854953491E+03   -0.15450E-03   -0.77264E-03  4641   0.163E-01    0.311E-01
DAV:   3    -0.570855406767E+03   -0.45328E-03   -0.16262E-03  4675   0.192E-01    0.378E-01
DAV:   4    -0.570853863661E+03    0.15431E-02   -0.80980E-04  3240   0.139E-01    0.164E-01
DAV:   5    -0.570853154105E+03    0.70956E-03   -0.33603E-04  2752   0.696E-02    0.143E-01
DAV:   6    -0.570852510532E+03    0.64357E-03   -0.16596E-04  2592   0.481E-02    0.888E-02
DAV:   7    -0.570851551302E+03    0.95923E-03   -0.15571E-04  2640   0.454E-02    0.120E-01
DAV:   8    -0.570850178761E+03    0.13725E-02   -0.16396E-04  2624   0.459E-02    0.103E-01
DAV:   9    -0.570849338147E+03    0.84061E-03   -0.75047E-05  2560   0.314E-02    0.760E-02
DAV:  10    -0.570848829350E+03    0.50880E-03   -0.25994E-05  2528   0.163E-02    0.700E-02
DAV:  11    -0.570848298890E+03    0.53046E-03   -0.93052E-06  2560   0.972E-03    0.654E-02
DAV:  12    -0.570848065596E+03    0.23329E-03   -0.21721E-06  2416   0.369E-03    0.641E-02
DAV:  13    -0.570848834833E+03   -0.76924E-03   -0.57614E-06  2520   0.873E-03    0.703E-02
DAV:  14    -0.570851109224E+03   -0.22744E-02   -0.27718E-05  2632   0.182E-02    0.739E-02
DAV:  15    -0.570856979960E+03   -0.58707E-02   -0.97544E-05  2776   0.267E-02    0.873E-02
DAV:  16    -0.570867147903E+03   -0.10168E-01   -0.31717E-04  3248   0.380E-02    0.976E-02
DAV:  17    -0.570872290766E+03   -0.51429E-02   -0.16760E-04  2928   0.315E-02    0.965E-02
DAV:  18    -0.570875388112E+03   -0.30973E-02   -0.11252E-04  2832   0.272E-02    0.942E-02
DAV:  19    -0.570879850102E+03   -0.44620E-02   -0.17268E-04  2976   0.315E-02    0.746E-02
DAV:  20    -0.570884109583E+03   -0.42595E-02   -0.21291E-04  3112   0.349E-02    0.679E-02
[...]
DAV:   3    -0.570877853521E+03    0.36548E-03   -0.18076E-03  4874   0.181E-01    0.295E-01
DAV:   4    -0.570877786884E+03    0.66636E-04   -0.95347E-04  3328   0.160E-01
  83 F= -.60929718E+03 E0= -.60876958E+03  d E =-.160124E-02  mag=    -0.0003
       N       E                     dE             d eps       ncg     rms          rms(c)
DAV:   1    -0.570880017500E+03   -0.21640E-02   -0.23814E+00  4547   0.186E+00    0.228E-01
DAV:   2    -0.570890789426E+03   -0.10772E-01   -0.41129E-02  4660   0.477E-01    0.108E+00
DAV:   3    -0.570885428428E+03    0.53610E-02   -0.11251E-02  4770   0.443E-01    0.593E-01
DAV:   4    -0.570884230125E+03    0.11983E-02   -0.34625E-03  4713   0.287E-01    0.453E-01
DAV:   5    -0.570883040562E+03    0.11896E-02   -0.16333E-03  4745   0.174E-01    0.228E-01
DAV:   6    -0.570882772568E+03    0.26799E-03   -0.56129E-04  3124   0.909E-02    0.142E-01
DAV:   7    -0.570882735575E+03    0.36992E-04   -0.40236E-04  2920   0.746E-02
  84 F= -.60929780E+03 E0= -.60876988E+03  d E =-.621411E-03  mag=    -0.0004
       N       E                     dE             d eps       ncg     rms          rms(c)
DAV:   1    -0.570882867944E+03   -0.95376E-04   -0.40396E-01  4592   0.795E-01    0.266E-01
DAV:   2    -0.570904240436E+03   -0.21372E-01   -0.29858E-02  5184   0.595E-01    0.176E+00
DAV:   3    -0.570888489703E+03    0.15751E-01   -0.19644E-02  5180   0.624E-01    0.817E-01
DAV:   4    -0.570883420069E+03    0.50696E-02   -0.37000E-03  4944   0.288E-01    0.245E-01
DAV:   5    -0.570883184599E+03    0.23547E-03   -0.10402E-03  4603   0.114E-01    0.157E-01
DAV:   6    -0.570883132844E+03    0.51755E-04   -0.45080E-04  2986   0.764E-02
  85 F= -.60929722E+03 E0= -.60876949E+03  d E =0.583104E-03  mag=    -0.0005
       N       E                     dE             d eps       ncg     rms          rms(c)
DAV:   1    -0.570883499975E+03   -0.31538E-03   -0.10543E-01  4576   0.410E-01    0.149E-01
DAV:   2    -0.570894147972E+03   -0.10648E-01   -0.11529E-02  5314   0.399E-01    0.123E+00
DAV:   3    -0.570886516511E+03    0.76315E-02   -0.99279E-03  5340   0.448E-01    0.608E-01
DAV:   4    -0.570883659826E+03    0.28567E-02   -0.17494E-03  4424   0.200E-01    0.116E-01
DAV:   5    -0.570883628355E+03    0.31471E-04   -0.30391E-04  2731   0.551E-02
  86 F= -.60929799E+03 E0= -.60877018E+03  d E =-.768389E-03  mag=    -0.0006
       N       E                     dE             d eps       ncg     rms          rms(c)
DAV:   1    -0.570882067222E+03    0.15926E-02   -0.26375E-01  4569   0.625E-01    0.930E-02
DAV:   2    -0.570883740739E+03   -0.16735E-02   -0.50238E-03  4795   0.181E-01    0.473E-01
DAV:   3    -0.570882408552E+03    0.13322E-02   -0.19542E-03  4787   0.155E-01    0.114E-01
DAV:   4    -0.570882505474E+03   -0.96922E-04   -0.31036E-04  2690   0.741E-02
  87 F= -.60929830E+03 E0= -.60877017E+03  d E =-.311776E-03  mag=    -0.0006
       N       E                     dE             d eps       ncg     rms          rms(c)
DAV:   1    -0.570882509663E+03   -0.10111E-03   -0.77649E-01  4533   0.997E-01    0.259E-01
DAV:   2    -0.570940700361E+03   -0.58191E-01   -0.32619E-02  5913   0.869E-01    0.271E+00
DAV:   3    -0.570883717256E+03    0.56983E-01   -0.25511E-02  5881   0.849E-01    0.352E-01
DAV:   4    -0.570883588009E+03    0.12925E-03   -0.29072E-03  4963   0.187E-01    0.364E-01
DAV:   5    -0.570883855493E+03   -0.26748E-03   -0.23699E-03  4994   0.174E-01    0.384E-01
DAV:   6    -0.570882965362E+03    0.89013E-03   -0.15351E-03  4808   0.156E-01    0.167E-01
DAV:   7    -0.570882955952E+03    0.94101E-05   -0.65670E-04  3938   0.971E-02
  88 F= -.60929863E+03 E0= -.60877077E+03  d E =-.333151E-03  mag=    -0.0008
       N       E                     dE             d eps       ncg     rms          rms(c)
DAV:   1    -0.570855143201E+03    0.27822E-01   -0.28541E+01  4472   0.609E+00    0.117E+00
DAV:   2    -0.570892751784E+03   -0.37609E-01   -0.36014E-01  4627   0.905E-01    0.167E+00
DAV:   3    -0.570909360391E+03   -0.16609E-01   -0.82150E-02  5032   0.105E+00    0.223E+00
DAV:   4    -0.571070345187E+03   -0.16098E+00   -0.11834E-01  5552   0.184E+00    0.500E+00
DAV:   5    -0.570888699861E+03    0.18165E+00   -0.14295E-01  5592   0.167E+00    0.129E+00
DAV:   6    -0.570880127540E+03    0.85723E-02   -0.30567E-02  5282   0.665E-01    0.879E-01
DAV:   7    -0.570886833313E+03   -0.67058E-02   -0.24954E-02  5201   0.584E-01    0.135E+00
DAV:   8    -0.570877527481E+03    0.93058E-02   -0.16394E-02  5136   0.480E-01    0.651E-01
DAV:   9    -0.570874603706E+03    0.29238E-02   -0.45834E-03  5080   0.241E-01    0.229E-01
DAV:  10    -0.570874355225E+03    0.24848E-03   -0.11003E-03  4632   0.109E-01    0.146E-01
DAV:  11    -0.570874308415E+03    0.46810E-04   -0.47280E-04  3017   0.773E-02
  89 F= -.60928477E+03 E0= -.60875720E+03  d E =0.138569E-01  mag=    -0.0011
       N       E                     dE             d eps       ncg     rms          rms(c)
DAV:   1    -0.570851906334E+03    0.22449E-01   -0.21935E+01  4472   0.521E+00    0.966E-01
DAV:   2    -0.570882949000E+03   -0.31043E-01   -0.31639E-01  4704   0.770E-01    0.129E+00
DAV:   3    -0.570953185424E+03   -0.70236E-01   -0.79589E-02  5312   0.128E+00    0.322E+00
DAV:   4    -0.570918734352E+03    0.34451E-01   -0.85839E-02  5384   0.149E+00    0.251E+00
DAV:   5    -0.570876923640E+03    0.41811E-01   -0.40033E-02  5337   0.848E-01    0.100E+00
DAV:   6    -0.570877181458E+03   -0.25782E-03   -0.21496E-02  5304   0.547E-01    0.993E-01
DAV:   7    -0.570877796469E+03   -0.61501E-03   -0.18925E-02  5188   0.515E-01    0.102E+00
DAV:   8    -0.570872240663E+03    0.55558E-02   -0.11900E-02  5177   0.390E-01    0.549E-01
DAV:   9    -0.570870416086E+03    0.18246E-02   -0.31819E-03  5032   0.200E-01    0.229E-01
DAV:  10    -0.570870307417E+03    0.10867E-03   -0.10552E-03  4657   0.118E-01    0.201E-01
DAV:  11    -0.570870110411E+03    0.19701E-03   -0.55195E-04  3144   0.889E-02    0.126E-01
DAV:  12    -0.570870024790E+03    0.85621E-04   -0.20651E-04  2688   0.518E-02
  90 F= -.60928356E+03 E0= -.60875614E+03  d E =0.121497E-02  mag=    -0.0013
       N       E                     dE             d eps       ncg     rms          rms(c)
DAV:   1    -0.570833298257E+03    0.36812E-01   -0.23766E+01  4472   0.590E+00    0.926E-01
DAV:   2    -0.570866667209E+03   -0.33369E-01   -0.37433E-01  4704   0.892E-01    0.102E+00
DAV:   3    -0.570903504335E+03   -0.36837E-01   -0.60534E-02  5080   0.984E-01    0.244E+00
DAV:   4    -0.570907366184E+03   -0.38618E-02   -0.61250E-02  5128   0.131E+00    0.248E+00
DAV:   5    -0.570869047804E+03    0.38318E-01   -0.37299E-02  5152   0.984E-01    0.129E+00
DAV:   6    -0.570862839993E+03    0.62078E-02   -0.23186E-02  5080   0.559E-01    0.898E-01
DAV:   7    -0.570864485496E+03   -0.16455E-02   -0.19249E-02  5067   0.503E-01    0.970E-01
DAV:   8    -0.570859746844E+03    0.47387E-02   -0.12401E-02  5051   0.401E-01    0.600E-01
DAV:   9    -0.570857688726E+03    0.20581E-02   -0.42316E-03  5072   0.228E-01    0.267E-01
DAV:  10    -0.570857495740E+03    0.19299E-03   -0.14713E-03  4864   0.135E-01    0.209E-01
DAV:  11    -0.570857365339E+03    0.13040E-03   -0.69083E-04  3360   0.995E-02    0.173E-01
DAV:  12    -0.570857187086E+03    0.17825E-03   -0.31728E-04  2713   0.672E-02    0.839E-02
DAV:  13    -0.570857166866E+03    0.20220E-04   -0.11599E-04  2608   0.385E-02
  91 F= -.60927886E+03 E0= -.60875142E+03  d E =0.469400E-02  mag=    -0.0016
       N       E                     dE             d eps       ncg     rms          rms(c)
DAV:   1    -0.570871319326E+03   -0.14132E-01   -0.65719E+00  4584   0.314E+00    0.460E-01
DAV:   2    -0.570886794644E+03   -0.15475E-01   -0.14287E-01  4665   0.582E-01    0.904E-01
DAV:   3    -0.570886749397E+03    0.45246E-04   -0.17052E-02  4968   0.481E-01    0.892E-01
DAV:   4    -0.570894610893E+03   -0.78615E-02   -0.13237E-02  5113   0.586E-01    0.133E+00
DAV:   5    -0.570883167162E+03    0.11444E-01   -0.10753E-02  5248   0.509E-01    0.629E-01
DAV:   6    -0.570881328799E+03    0.18384E-02   -0.53919E-03  5089   0.278E-01    0.411E-01
DAV:   7    -0.570882668970E+03   -0.13402E-02   -0.62173E-03  5065   0.274E-01    0.595E-01
DAV:   8    -0.570880970539E+03    0.16984E-02   -0.47207E-03  5056   0.244E-01    0.338E-01
DAV:   9    -0.570880261731E+03    0.70881E-03   -0.15059E-03  4880   0.139E-01    0.165E-01
DAV:  10    -0.570880161721E+03    0.10001E-03   -0.45439E-04  2920   0.767E-02    0.122E-01
DAV:  11    -0.570880131642E+03    0.30079E-04   -0.24426E-04  2728   0.588E-02
  92 F= -.60929613E+03 E0= -.60876855E+03  d E =-.172696E-01  mag=    -0.0019
       N       E                     dE             d eps       ncg     rms          rms(c)
DAV:   1    -0.570886260907E+03   -0.60992E-02   -0.44412E+00  4486   0.231E+00    0.436E-01
DAV:   2    -0.570893490286E+03   -0.72294E-02   -0.63297E-02  4688   0.367E-01    0.723E-01
DAV:   3    -0.570902562159E+03   -0.90719E-02   -0.13921E-02  5121   0.565E-01    0.128E+00
DAV:   4    -0.570899017873E+03    0.35443E-02   -0.14522E-02  5200   0.615E-01    0.114E+00
DAV:   5    -0.570891529521E+03    0.74884E-02   -0.10012E-02  5193   0.394E-01    0.531E-01
DAV:   6    -0.570890636199E+03    0.89332E-03   -0.49968E-03  5140   0.265E-01    0.372E-01
DAV:   7    -0.570890515716E+03    0.12048E-03   -0.31843E-03  5075   0.210E-01    0.336E-01
DAV:   8    -0.570889837019E+03    0.67870E-03   -0.15584E-03  4867   0.151E-01    0.198E-01
DAV:   9    -0.570889622302E+03    0.21472E-03   -0.46498E-04  2865   0.787E-02    0.113E-01
DAV:  10    -0.570889586454E+03    0.35847E-04   -0.19877E-04  2618   0.495E-02
  93 F= -.60930450E+03 E0= -.60877721E+03  d E =-.836669E-02  mag=    -0.0022
       N       E                     dE             d eps       ncg     rms          rms(c)
DAV:   1    -0.570888455201E+03    0.11671E-02   -0.26759E+00  4486   0.174E+00    0.368E-01
DAV:   2    -0.570892769530E+03   -0.43143E-02   -0.33692E-02  4944   0.285E-01    0.646E-01
DAV:   3    -0.570896190821E+03   -0.34213E-02   -0.94227E-03  5028   0.417E-01    0.903E-01
DAV:   4    -0.570901058191E+03   -0.48674E-02   -0.11045E-02  5296   0.553E-01    0.121E+00
DAV:   5    -0.570891560819E+03    0.94974E-02   -0.75689E-03  5280   0.407E-01    0.469E-01
DAV:   6    -0.570890702882E+03    0.85794E-03   -0.34786E-03  5264   0.218E-01    0.322E-01
DAV:   7    -0.570890881511E+03   -0.17863E-03   -0.23929E-03  4978   0.173E-01    0.333E-01
DAV:   8    -0.570890178125E+03    0.70339E-03   -0.11800E-03  4473   0.135E-01    0.142E-01
DAV:   9    -0.570890041823E+03    0.13630E-03   -0.27474E-04  2688   0.600E-02    0.774E-02
DAV:  10    -0.570890024081E+03    0.17742E-04   -0.94959E-05  2522   0.327E-02
  94 F= -.60930481E+03 E0= -.60877761E+03  d E =-.312673E-03  mag=    -0.0025
       N       E                     dE             d eps       ncg     rms          rms(c)
DAV:   1    -0.569405945640E+03    0.14841E+01   -0.92951E+01  4540   0.103E+01    0.237E+00
DAV:   2    -0.569669637130E+03   -0.26369E+00   -0.30541E+00  4800   0.184E+00    0.253E+00
DAV:   3    -0.570485115063E+03   -0.81548E+00   -0.49995E-01  5608   0.375E+00    0.105E+01
DAV:   4    -0.569696253370E+03    0.78886E+00   -0.88807E-01  5536   0.349E+00    0.342E+00
DAV:   5    -0.569644775225E+03    0.51478E-01   -0.18652E-01  5464   0.151E+00    0.267E+00
DAV:   6    -0.569656620210E+03   -0.11845E-01   -0.15117E-01  5272   0.141E+00    0.283E+00
DAV:   7    -0.569635287078E+03    0.21333E-01   -0.12401E-01  5224   0.131E+00    0.231E+00
DAV:   8    -0.569605350394E+03    0.29937E-01   -0.66249E-02  5208   0.939E-01    0.125E+00
DAV:   9    -0.569597100839E+03    0.82496E-02   -0.21954E-02  5048   0.524E-01    0.648E-01
DAV:  10    -0.569596699648E+03    0.40119E-03   -0.96561E-03  5024   0.342E-01    0.613E-01
DAV:  11    -0.569595179004E+03    0.15206E-02   -0.47103E-03  5024   0.254E-01    0.415E-01
DAV:  12    -0.569594251750E+03    0.92725E-03   -0.15959E-03  4944   0.145E-01    0.232E-01
DAV:  13    -0.569593992725E+03    0.25903E-03   -0.64759E-04  3672   0.957E-02    0.147E-01
DAV:  14    -0.569593997692E+03   -0.49668E-05   -0.38491E-04  2952   0.791E-02
  95 F= -.60800932E+03 E0= -.60748130E+03  d E =0.129549E+01  mag=    -0.0031
       N       E                     dE             d eps       ncg     rms          rms(c)
DAV:   1    -0.570534318020E+03   -0.94033E+00   -0.26500E+01  4472   0.542E+00    0.126E+00
DAV:   2    -0.570619329240E+03   -0.85011E-01   -0.94784E-01  4936   0.102E+00    0.169E+00
DAV:   3    -0.570806091993E+03   -0.18676E+00   -0.15414E-01  5624   0.191E+00    0.516E+00
DAV:   4    -0.570628735886E+03    0.17736E+00   -0.18835E-01  5594   0.190E+00    0.210E+00
DAV:   5    -0.570602478498E+03    0.26257E-01   -0.37321E-02  5428   0.754E-01    0.122E+00
DAV:   6    -0.570607744076E+03   -0.52656E-02   -0.28717E-02  5345   0.663E-01    0.142E+00
DAV:   7    -0.570606130519E+03    0.16136E-02   -0.36425E-02  5243   0.714E-01    0.132E+00
DAV:   8    -0.570595989064E+03    0.10141E-01   -0.22671E-02  5203   0.569E-01    0.836E-01
DAV:   9    -0.570594528779E+03    0.14603E-02   -0.11438E-02  5168   0.376E-01    0.709E-01
DAV:  10    -0.570591807424E+03    0.27214E-02   -0.60345E-03  5120   0.276E-01    0.301E-01
DAV:  11    -0.570591291891E+03    0.51553E-03   -0.17746E-03  5048   0.161E-01    0.207E-01
DAV:  12    -0.570591113920E+03    0.17797E-03   -0.37150E-04  2920   0.713E-02    0.155E-01
DAV:  13    -0.570591031762E+03    0.82159E-04   -0.15744E-04  2600   0.451E-02
  96 F= -.60900510E+03 E0= -.60847758E+03  d E =-.995780E+00  mag=    -0.0036
       N       E                     dE             d eps       ncg     rms          rms(c)
DAV:   1    -0.570828654677E+03   -0.23754E+00   -0.18929E+01  4494   0.458E+00    0.110E+00
DAV:   2    -0.570891075568E+03   -0.62421E-01   -0.66499E-01  4912   0.831E-01    0.134E+00
DAV:   3    -0.571065381409E+03   -0.17431E+00   -0.13984E-01  5611   0.179E+00    0.487E+00
DAV:   4    -0.570896193245E+03    0.16919E+00   -0.11089E-01  5672   0.165E+00    0.174E+00
DAV:   5    -0.570879731317E+03    0.16462E-01   -0.28162E-02  5520   0.648E-01    0.989E-01
DAV:   6    -0.570887945082E+03   -0.82138E-02   -0.27199E-02  5192   0.619E-01    0.142E+00
DAV:   7    -0.570881770381E+03    0.61747E-02   -0.29582E-02  5170   0.638E-01    0.113E+00
DAV:   8    -0.570874942399E+03    0.68280E-02   -0.16082E-02  5200   0.456E-01    0.596E-01
DAV:   9    -0.570873237764E+03    0.17046E-02   -0.56351E-03  5096   0.277E-01    0.382E-01
DAV:  10    -0.570873219539E+03    0.18225E-04   -0.31051E-03  5057   0.196E-01    0.371E-01
DAV:  11    -0.570872381506E+03    0.83803E-03   -0.13020E-03  4576   0.137E-01    0.150E-01
DAV:  12    -0.570872244533E+03    0.13697E-03   -0.26861E-04  2649   0.629E-02    0.943E-02
DAV:  13    -0.570872231160E+03    0.13373E-04   -0.13775E-04  2632   0.427E-02
  97 F= -.60928548E+03 E0= -.60875794E+03  d E =-.280382E+00  mag=    -0.0042
       N       E                     dE             d eps       ncg     rms          rms(c)
DAV:   1    -0.570882466323E+03   -0.10222E-01   -0.19412E-01  4632   0.488E-01    0.117E-01
DAV:   2    -0.570884266926E+03   -0.18006E-02   -0.75846E-03  4937   0.180E-01    0.463E-01
DAV:   3    -0.570883317828E+03    0.94910E-03   -0.19448E-03  4795   0.173E-01    0.240E-01
DAV:   4    -0.570883419666E+03   -0.10184E-03   -0.75885E-04  3152   0.141E-01    0.277E-01
DAV:   5    -0.570882943658E+03    0.47601E-03   -0.47573E-04  2938   0.101E-01    0.132E-01
DAV:   6    -0.570882860291E+03    0.83367E-04   -0.31215E-04  2892   0.640E-02
  98 F= -.60929602E+03 E0= -.60876851E+03  d E =-.105358E-01  mag=    -0.0046
       N       E                     dE             d eps       ncg     rms          rms(c)
DAV:   1    -0.570890805081E+03   -0.78614E-02   -0.71749E-01  4616   0.962E-01    0.218E-01
DAV:   2    -0.570895754648E+03   -0.49496E-02   -0.25083E-02  4929   0.299E-01    0.726E-01
DAV:   3    -0.570892783357E+03    0.29713E-02   -0.53489E-03  5090   0.262E-01    0.279E-01
DAV:   4    -0.570895663803E+03   -0.28804E-02   -0.26352E-03  4675   0.254E-01    0.664E-01
DAV:   5    -0.570892777762E+03    0.28860E-02   -0.27474E-03  4955   0.259E-01    0.321E-01
DAV:   6    -0.570892341468E+03    0.43629E-03   -0.13640E-03  4776   0.130E-01    0.213E-01
DAV:   7    -0.570892492453E+03   -0.15098E-03   -0.10731E-03  4448   0.118E-01    0.246E-01
DAV:   8    -0.570892208632E+03    0.28382E-03   -0.63003E-04  3072   0.995E-02    0.151E-01
DAV:   9    -0.570892080682E+03    0.12795E-03   -0.26843E-04  2696   0.597E-02    0.750E-02
DAV:  10    -0.570892070866E+03    0.98158E-05   -0.11837E-04  2553   0.410E-02
  99 F= -.60930489E+03 E0= -.60877764E+03  d E =-.887279E-02  mag=    -0.0052
       N       E                     dE             d eps       ncg     rms          rms(c)
DAV:   1    -0.570893142686E+03   -0.10620E-02   -0.32818E-02  4540   0.222E-01    0.715E-02
DAV:   2    -0.570894301063E+03   -0.11584E-02   -0.21822E-03  4989   0.150E-01    0.385E-01
DAV:   3    -0.570893702299E+03    0.59876E-03   -0.13720E-03  3749   0.161E-01    0.262E-01
DAV:   4    -0.570893236796E+03    0.46550E-03   -0.38030E-04  2794   0.966E-02    0.907E-02
DAV:   5    -0.570893189314E+03    0.47483E-04   -0.10743E-04  2556   0.382E-02
 100 F= -.60930586E+03 E0= -.60877874E+03  d E =-.967616E-03  mag=    -0.0054
       N       E                     dE             d eps       ncg     rms          rms(c)
DAV:   1    -0.570894241087E+03   -0.10043E-02   -0.15707E-01  4632   0.488E-01    0.996E-02
DAV:   2    -0.570895237651E+03   -0.99656E-03   -0.38112E-03  4788   0.142E-01    0.335E-01
DAV:   3    -0.570895055476E+03    0.18218E-03   -0.13862E-03  4506   0.170E-01    0.295E-01
DAV:   4    -0.570894589065E+03    0.46641E-03   -0.58317E-04  2953   0.121E-01    0.168E-01
DAV:   5    -0.570894501183E+03    0.87883E-04   -0.34994E-04  2762   0.776E-02
 101 F= -.60930680E+03 E0= -.60877930E+03  d E =-.940010E-03  mag=    -0.0057
       N       E                     dE             d eps       ncg     rms          rms(c)
DAV:   1    -0.570894579393E+03    0.96729E-05   -0.11161E-02  4577   0.146E-01    0.114E-01
DAV:   2    -0.570898605564E+03   -0.40262E-02   -0.47196E-03  5141   0.257E-01    0.767E-01
DAV:   3    -0.570895854767E+03    0.27508E-02   -0.44257E-03  4997   0.279E-01    0.408E-01
DAV:   4    -0.570894618903E+03    0.12359E-02   -0.87152E-04  3200   0.145E-01    0.123E-01
DAV:   5    -0.570894527902E+03    0.91001E-04   -0.19080E-04  2652   0.479E-02
 102 F= -.60930683E+03 E0= -.60877965E+03  d E =-.305818E-04  mag=    -0.0060
       N       E                     dE             d eps       ncg     rms          rms(c)
DAV:   1    -0.570894655899E+03   -0.36996E-04   -0.59336E-02  4600   0.305E-01    0.627E-02
DAV:   2    -0.570895039878E+03   -0.38398E-03   -0.14992E-03  4657   0.953E-02    0.220E-01
DAV:   3    -0.570894770443E+03    0.26943E-03   -0.51735E-04  2961   0.832E-02    0.900E-02
DAV:   4    -0.570894734685E+03    0.35758E-04   -0.13347E-04  2562   0.400E-02
 103 F= -.60930695E+03 E0= -.60877960E+03  d E =-.118331E-03  mag=    -0.0063
       N       E                     dE             d eps       ncg     rms          rms(c)
DAV:   1    -0.570894870237E+03   -0.99794E-04   -0.61500E-03  4554   0.103E-01    0.833E-02
DAV:   2    -0.570902071404E+03   -0.72012E-02   -0.41840E-03  5154   0.308E-01    0.965E-01
DAV:   3    -0.570895589805E+03    0.64816E-02   -0.41537E-03  4780   0.335E-01    0.316E-01
DAV:   4    -0.570894866064E+03    0.72374E-03   -0.52041E-04  3008   0.965E-02    0.625E-02
DAV:   5    -0.570894848522E+03    0.17542E-04   -0.12110E-04  2619   0.323E-02
 104 F= -.60930701E+03 E0= -.60877967E+03  d E =-.655055E-04  mag=    -0.0065
