  37  37   0   0
  0.4463353E+02  0.8642259E-09  0.8642259E-09  0.2211100E-08  0.0000000E+00
  1.000000000000000E-004
  CAR 
 CatImpurities                           
      7.44327066    -15.32416062  301      0.44053348      1.00000000
    -15.324  0.0000E+00  0.0000E+00  0.0000E+00  0.0000E+00
    -15.248  0.0000E+00  0.0000E+00  0.0000E+00  0.0000E+00
    -15.172  0.0000E+00  0.0000E+00  0.0000E+00  0.0000E+00
    -15.096  0.0000E+00  0.0000E+00  0.0000E+00  0.0000E+00
    -15.021  0.0000E+00  0.0000E+00  0.0000E+00  0.0000E+00
    -14.945  0.0000E+00  0.0000E+00  0.0000E+00  0.0000E+00
    -14.869  0.2926E-17  0.2926E-17  0.2220E-18  0.2220E-18
    -14.793  0.1390E-13  0.1390E-13  0.1055E-14  0.1055E-14
    -14.717  0.1909E-10  0.1909E-10  0.1449E-11  0.1450E-11
    -14.641  0.8507E-08  0.8507E-08  0.6470E-09  0.6471E-09
    -14.565  0.1242E-05  0.1242E-05  0.9487E-07  0.9487E-07
    -14.489  0.6007E-04  0.6007E-04  0.4654E-05  0.4654E-05
    -14.413  0.9790E-03  0.9790E-03  0.7895E-04  0.7895E-04
    -14.338  0.5472E-02  0.5472E-02  0.4943E-03  0.4943E-03
    -14.262  0.1066E-01  0.1066E-01  0.1303E-02  0.1303E-02
    -14.186  0.7290E-02  0.7290E-02  0.1857E-02  0.1857E-02
    -14.110  0.1743E-02  0.1743E-02  0.1989E-02  0.1989E-02
    -14.034  0.1436E-03  0.1436E-03  0.2000E-02  0.2000E-02
    -13.958  0.4005E-05  0.4005E-05  0.2000E-02  0.2000E-02
    -13.882  0.3718E-07  0.3718E-07  0.2000E-02  0.2000E-02
    -13.806  0.1133E-09  0.1133E-09  0.2000E-02  0.2000E-02
    -13.730  0.1124E-12  0.1124E-12  0.2000E-02  0.2000E-02
    -13.655  0.3511E-16  0.3511E-16  0.2000E-02  0.2000E-02
    -13.579  0.0000E+00  0.0000E+00  0.2000E-02  0.2000E-02
    -13.503  0.0000E+00  0.0000E+00  0.2000E-02  0.2000E-02
    -13.427  0.0000E+00  0.0000E+00  0.2000E-02  0.2000E-02
    -13.351  0.0000E+00  0.0000E+00  0.2000E-02  0.2000E-02
    -13.275  0.0000E+00  0.0000E+00  0.2000E-02  0.2000E-02
    -13.199  0.0000E+00  0.0000E+00  0.2000E-02  0.2000E-02
    -13.123  0.0000E+00  0.0000E+00  0.2000E-02  0.2000E-02
    -13.047  0.0000E+00  0.0000E+00  0.2000E-02  0.2000E-02
    -12.972  0.0000E+00  0.0000E+00  0.2000E-02  0.2000E-02
    -12.896  0.0000E+00  0.0000E+00  0.2000E-02  0.2000E-02
    -12.820  0.0000E+00  0.0000E+00  0.2000E-02  0.2000E-02
    -12.744  0.0000E+00  0.0000E+00  0.2000E-02  0.2000E-02
    -12.668  0.0000E+00  0.0000E+00  0.2000E-02  0.2000E-02
    -12.592  0.0000E+00  0.0000E+00  0.2000E-02  0.2000E-02
    -12.516  0.0000E+00  0.0000E+00  0.2000E-02  0.2000E-02
    -12.440  0.0000E+00  0.0000E+00  0.2000E-02  0.2000E-02
    -12.364  0.0000E+00  0.0000E+00  0.2000E-02  0.2000E-02
    -12.289  0.0000E+00  0.0000E+00  0.2000E-02  0.2000E-02
    -12.213  0.0000E+00  0.0000E+00  0.2000E-02  0.2000E-02
    -12.137  0.0000E+00  0.0000E+00  0.2000E-02  0.2000E-02
    -12.061  0.0000E+00  0.0000E+00  0.2000E-02  0.2000E-02
    -11.985  0.0000E+00  0.0000E+00  0.2000E-02  0.2000E-02
    -11.909  0.0000E+00  0.0000E+00  0.2000E-02  0.2000E-02
    -11.833  0.0000E+00  0.0000E+00  0.2000E-02  0.2000E-02
    -11.757  0.0000E+00  0.0000E+00  0.2000E-02  0.2000E-02
    -11.681  0.0000E+00  0.0000E+00  0.2000E-02  0.2000E-02
    -11.605  0.0000E+00  0.0000E+00  0.2000E-02  0.2000E-02
    -11.530  0.0000E+00  0.0000E+00  0.2000E-02  0.2000E-02
    -11.454  0.0000E+00  0.0000E+00  0.2000E-02  0.2000E-02
    -11.378  0.0000E+00  0.0000E+00  0.2000E-02  0.2000E-02
    -11.302  0.0000E+00  0.0000E+00  0.2000E-02  0.2000E-02
    -11.226  0.0000E+00  0.0000E+00  0.2000E-02  0.2000E-02
    -11.150  0.0000E+00  0.0000E+00  0.2000E-02  0.2000E-02
    -11.074  0.0000E+00  0.0000E+00  0.2000E-02  0.2000E-02
    -10.998  0.0000E+00  0.0000E+00  0.2000E-02  0.2000E-02
    -10.922  0.0000E+00  0.0000E+00  0.2000E-02  0.2000E-02
    -10.847  0.0000E+00  0.0000E+00  0.2000E-02  0.2000E-02
    -10.771  0.0000E+00  0.0000E+00  0.2000E-02  0.2000E-02
    -10.695  0.0000E+00  0.0000E+00  0.2000E-02  0.2000E-02
    -10.619  0.0000E+00  0.0000E+00  0.2000E-02  0.2000E-02
    -10.543  0.0000E+00  0.0000E+00  0.2000E-02  0.2000E-02
    -10.467  0.0000E+00  0.0000E+00  0.2000E-02  0.2000E-02
    -10.391  0.0000E+00  0.0000E+00  0.2000E-02  0.2000E-02
    -10.315  0.0000E+00  0.0000E+00  0.2000E-02  0.2000E-02
    -10.239  0.0000E+00  0.0000E+00  0.2000E-02  0.2000E-02
    -10.164  0.0000E+00  0.0000E+00  0.2000E-02  0.2000E-02
    -10.088  0.0000E+00  0.0000E+00  0.2000E-02  0.2000E-02
    -10.012  0.0000E+00  0.0000E+00  0.2000E-02  0.2000E-02
     -9.936  0.0000E+00  0.0000E+00  0.2000E-02  0.2000E-02
     -9.860  0.0000E+00  0.0000E+00  0.2000E-02  0.2000E-02
     -9.784  0.0000E+00  0.0000E+00  0.2000E-02  0.2000E-02
     -9.708  0.0000E+00  0.0000E+00  0.2000E-02  0.2000E-02
     -9.632  0.0000E+00  0.0000E+00  0.2000E-02  0.2000E-02
     -9.556  0.0000E+00  0.0000E+00  0.2000E-02  0.2000E-02
     -9.481  0.0000E+00  0.0000E+00  0.2000E-02  0.2000E-02
     -9.405  0.0000E+00  0.0000E+00  0.2000E-02  0.2000E-02
     -9.329  0.0000E+00  0.0000E+00  0.2000E-02  0.2000E-02
     -9.253  0.0000E+00  0.0000E+00  0.2000E-02  0.2000E-02
     -9.177  0.0000E+00  0.0000E+00  0.2000E-02  0.2000E-02
     -9.101  0.0000E+00  0.0000E+00  0.2000E-02  0.2000E-02
     -9.025  0.0000E+00  0.0000E+00  0.2000E-02  0.2000E-02
     -8.949  0.0000E+00  0.0000E+00  0.2000E-02  0.2000E-02
     -8.873  0.0000E+00  0.0000E+00  0.2000E-02  0.2000E-02
     -8.797  0.0000E+00  0.0000E+00  0.2000E-02  0.2000E-02
     -8.722  0.0000E+00  0.0000E+00  0.2000E-02  0.2000E-02
     -8.646  0.0000E+00  0.0000E+00  0.2000E-02  0.2000E-02
     -8.570  0.0000E+00  0.0000E+00  0.2000E-02  0.2000E-02
     -8.494  0.0000E+00  0.0000E+00  0.2000E-02  0.2000E-02
     -8.418  0.0000E+00  0.0000E+00  0.2000E-02  0.2000E-02
     -8.342  0.0000E+00  0.0000E+00  0.2000E-02  0.2000E-02
     -8.266  0.0000E+00  0.0000E+00  0.2000E-02  0.2000E-02
     -8.190  0.0000E+00  0.0000E+00  0.2000E-02  0.2000E-02
     -8.114  0.0000E+00  0.0000E+00  0.2000E-02  0.2000E-02
     -8.039  0.0000E+00  0.0000E+00  0.2000E-02  0.2000E-02
     -7.963  0.0000E+00  0.0000E+00  0.2000E-02  0.2000E-02
     -7.887  0.0000E+00  0.0000E+00  0.2000E-02  0.2000E-02
     -7.811  0.0000E+00  0.0000E+00  0.2000E-02  0.2000E-02
     -7.735  0.0000E+00  0.0000E+00  0.2000E-02  0.2000E-02
     -7.659  0.0000E+00  0.0000E+00  0.2000E-02  0.2000E-02
     -7.583  0.0000E+00  0.0000E+00  0.2000E-02  0.2000E-02
     -7.507  0.0000E+00  0.0000E+00  0.2000E-02  0.2000E-02
     -7.431  0.0000E+00  0.0000E+00  0.2000E-02  0.2000E-02
     -7.356  0.3251E-16  0.3251E-16  0.2000E-02  0.2000E-02
     -7.280  0.7663E-13  0.7663E-13  0.2000E-02  0.2000E-02
     -7.204  0.5851E-10  0.5851E-10  0.2000E-02  0.2000E-02
     -7.128  0.1456E-07  0.1456E-07  0.2000E-02  0.2000E-02
     -7.052  0.1195E-05  0.1195E-05  0.2000E-02  0.2000E-02
     -6.976  0.3288E-04  0.3288E-04  0.2003E-02  0.2003E-02
     -6.900  0.3149E-03  0.3149E-03  0.2026E-02  0.2026E-02
     -6.824  0.1166E-02  0.1166E-02  0.2115E-02  0.2115E-02
     -6.748  0.2242E-02  0.2242E-02  0.2285E-02  0.2285E-02
     -6.673  0.3009E-02  0.3009E-02  0.2513E-02  0.2513E-02
     -6.597  0.2836E-02  0.2836E-02  0.2729E-02  0.2729E-02
     -6.521  0.2803E-02  0.2803E-02  0.2941E-02  0.2941E-02
     -6.445  0.3416E-02  0.3416E-02  0.3201E-02  0.3201E-02
     -6.369  0.3568E-02  0.3568E-02  0.3471E-02  0.3471E-02
     -6.293  0.3044E-02  0.3044E-02  0.3702E-02  0.3702E-02
     -6.217  0.2780E-02  0.2780E-02  0.3913E-02  0.3913E-02
     -6.141  0.4124E-02  0.4124E-02  0.4226E-02  0.4226E-02
     -6.065  0.4686E-02  0.4686E-02  0.4582E-02  0.4582E-02
     -5.990  0.3661E-02  0.3661E-02  0.4860E-02  0.4860E-02
     -5.914  0.4495E-02  0.4495E-02  0.5201E-02  0.5201E-02
     -5.838  0.9971E-02  0.9971E-02  0.5958E-02  0.5958E-02
     -5.762  0.2107E-01  0.2107E-01  0.7556E-02  0.7556E-02
     -5.686  0.4180E-01  0.4180E-01  0.1073E-01  0.1073E-01
     -5.610  0.6554E-01  0.6554E-01  0.1570E-01  0.1570E-01
     -5.534  0.7880E-01  0.7880E-01  0.2168E-01  0.2168E-01
     -5.458  0.8400E-01  0.8400E-01  0.2806E-01  0.2806E-01
     -5.382  0.8787E-01  0.8787E-01  0.3473E-01  0.3473E-01
     -5.306  0.8791E-01  0.8791E-01  0.4140E-01  0.4140E-01
     -5.231  0.9008E-01  0.9008E-01  0.4823E-01  0.4823E-01
     -5.155  0.9012E-01  0.9012E-01  0.5507E-01  0.5507E-01
     -5.079  0.8927E-01  0.8927E-01  0.6185E-01  0.6185E-01
     -5.003  0.9800E-01  0.9800E-01  0.6928E-01  0.6928E-01
     -4.927  0.1037E+00  0.1037E+00  0.7716E-01  0.7716E-01
     -4.851  0.1020E+00  0.1020E+00  0.8489E-01  0.8489E-01
     -4.775  0.1079E+00  0.1079E+00  0.9308E-01  0.9308E-01
     -4.699  0.1050E+00  0.1050E+00  0.1011E+00  0.1011E+00
     -4.623  0.9001E-01  0.9001E-01  0.1079E+00  0.1079E+00
     -4.548  0.8180E-01  0.8180E-01  0.1141E+00  0.1141E+00
     -4.472  0.8746E-01  0.8746E-01  0.1207E+00  0.1207E+00
     -4.396  0.9543E-01  0.9543E-01  0.1280E+00  0.1280E+00
     -4.320  0.9934E-01  0.9934E-01  0.1355E+00  0.1355E+00
     -4.244  0.1056E+00  0.1056E+00  0.1435E+00  0.1435E+00
     -4.168  0.1215E+00  0.1215E+00  0.1527E+00  0.1527E+00
     -4.092  0.1353E+00  0.1353E+00  0.1630E+00  0.1630E+00
     -4.016  0.1285E+00  0.1285E+00  0.1728E+00  0.1728E+00
     -3.940  0.1209E+00  0.1209E+00  0.1819E+00  0.1819E+00
     -3.865  0.1205E+00  0.1205E+00  0.1911E+00  0.1911E+00
     -3.789  0.1171E+00  0.1171E+00  0.2000E+00  0.2000E+00
     -3.713  0.1095E+00  0.1095E+00  0.2083E+00  0.2083E+00
     -3.637  0.1110E+00  0.1110E+00  0.2167E+00  0.2167E+00
     -3.561  0.1212E+00  0.1212E+00  0.2259E+00  0.2259E+00
     -3.485  0.1272E+00  0.1272E+00  0.2356E+00  0.2356E+00
     -3.409  0.1252E+00  0.1252E+00  0.2451E+00  0.2451E+00
     -3.333  0.1155E+00  0.1155E+00  0.2538E+00  0.2538E+00
     -3.257  0.1129E+00  0.1129E+00  0.2624E+00  0.2624E+00
     -3.182  0.1257E+00  0.1257E+00  0.2719E+00  0.2719E+00
     -3.106  0.1312E+00  0.1312E+00  0.2819E+00  0.2819E+00
     -3.030  0.1236E+00  0.1236E+00  0.2913E+00  0.2913E+00
     -2.954  0.1230E+00  0.1230E+00  0.3006E+00  0.3006E+00
     -2.878  0.1379E+00  0.1379E+00  0.3111E+00  0.3111E+00
     -2.802  0.1529E+00  0.1529E+00  0.3227E+00  0.3227E+00
     -2.726  0.1515E+00  0.1515E+00  0.3342E+00  0.3342E+00
     -2.650  0.1398E+00  0.1398E+00  0.3448E+00  0.3448E+00
     -2.574  0.1318E+00  0.1318E+00  0.3548E+00  0.3548E+00
     -2.499  0.1118E+00  0.1118E+00  0.3633E+00  0.3633E+00
     -2.423  0.7187E-01  0.7187E-01  0.3687E+00  0.3687E+00
     -2.347  0.3744E-01  0.3744E-01  0.3716E+00  0.3716E+00
     -2.271  0.2259E-01  0.2259E-01  0.3733E+00  0.3733E+00
     -2.195  0.1932E-01  0.1932E-01  0.3748E+00  0.3748E+00
     -2.119  0.1859E-01  0.1859E-01  0.3762E+00  0.3762E+00
     -2.043  0.1674E-01  0.1674E-01  0.3774E+00  0.3774E+00
     -1.967  0.1552E-01  0.1552E-01  0.3786E+00  0.3786E+00
     -1.891  0.1766E-01  0.1766E-01  0.3800E+00  0.3800E+00
     -1.815  0.1902E-01  0.1902E-01  0.3814E+00  0.3814E+00
     -1.740  0.1547E-01  0.1547E-01  0.3826E+00  0.3826E+00
     -1.664  0.9115E-02  0.9115E-02  0.3833E+00  0.3833E+00
     -1.588  0.7575E-02  0.7575E-02  0.3838E+00  0.3838E+00
     -1.512  0.1077E-01  0.1077E-01  0.3847E+00  0.3847E+00
     -1.436  0.1304E-01  0.1304E-01  0.3856E+00  0.3856E+00
     -1.360  0.1233E-01  0.1233E-01  0.3866E+00  0.3866E+00
     -1.284  0.1034E-01  0.1034E-01  0.3874E+00  0.3874E+00
     -1.208  0.9645E-02  0.9645E-02  0.3881E+00  0.3881E+00
     -1.132  0.1009E-01  0.1009E-01  0.3889E+00  0.3889E+00
     -1.057  0.7894E-02  0.7894E-02  0.3895E+00  0.3895E+00
     -0.981  0.5980E-02  0.5980E-02  0.3899E+00  0.3899E+00
     -0.905  0.7236E-02  0.7236E-02  0.3905E+00  0.3905E+00
     -0.829  0.8953E-02  0.8953E-02  0.3911E+00  0.3911E+00
     -0.753  0.1018E-01  0.1018E-01  0.3919E+00  0.3919E+00
     -0.677  0.9437E-02  0.9437E-02  0.3926E+00  0.3926E+00
     -0.601  0.7432E-02  0.7432E-02  0.3932E+00  0.3932E+00
     -0.525  0.8872E-02  0.8872E-02  0.3939E+00  0.3939E+00
     -0.449  0.1180E-01  0.1180E-01  0.3948E+00  0.3948E+00
     -0.374  0.1052E-01  0.1052E-01  0.3956E+00  0.3956E+00
     -0.298  0.7273E-02  0.7273E-02  0.3961E+00  0.3961E+00
     -0.222  0.6615E-02  0.6615E-02  0.3966E+00  0.3966E+00
     -0.146  0.1006E-01  0.1006E-01  0.3974E+00  0.3974E+00
     -0.070  0.1187E-01  0.1187E-01  0.3983E+00  0.3983E+00
      0.006  0.1056E-01  0.1056E-01  0.3991E+00  0.3991E+00
      0.082  0.9780E-02  0.9780E-02  0.3998E+00  0.3998E+00
      0.158  0.8407E-02  0.8407E-02  0.4005E+00  0.4005E+00
      0.234  0.7346E-02  0.7346E-02  0.4010E+00  0.4010E+00
      0.309  0.8680E-02  0.8680E-02  0.4017E+00  0.4017E+00
      0.385  0.1030E-01  0.1030E-01  0.4025E+00  0.4025E+00
      0.461  0.9530E-02  0.9530E-02  0.4032E+00  0.4032E+00
      0.537  0.8644E-02  0.8644E-02  0.4038E+00  0.4038E+00
      0.613  0.9669E-02  0.9669E-02  0.4046E+00  0.4046E+00
      0.689  0.1035E-01  0.1035E-01  0.4054E+00  0.4054E+00
      0.765  0.1262E-01  0.1262E-01  0.4063E+00  0.4063E+00
      0.841  0.1366E-01  0.1366E-01  0.4074E+00  0.4074E+00
      0.917  0.1303E-01  0.1303E-01  0.4083E+00  0.4083E+00
      0.992  0.1210E-01  0.1210E-01  0.4093E+00  0.4093E+00
      1.068  0.1159E-01  0.1159E-01  0.4101E+00  0.4101E+00
      1.144  0.1190E-01  0.1190E-01  0.4110E+00  0.4110E+00
      1.220  0.1166E-01  0.1166E-01  0.4119E+00  0.4119E+00
      1.296  0.1173E-01  0.1173E-01  0.4128E+00  0.4128E+00
      1.372  0.1149E-01  0.1149E-01  0.4137E+00  0.4137E+00
      1.448  0.1053E-01  0.1053E-01  0.4145E+00  0.4145E+00
      1.524  0.1103E-01  0.1103E-01  0.4153E+00  0.4153E+00
      1.600  0.1022E-01  0.1022E-01  0.4161E+00  0.4161E+00
      1.676  0.8966E-02  0.8966E-02  0.4168E+00  0.4168E+00
      1.751  0.9995E-02  0.9995E-02  0.4175E+00  0.4175E+00
      1.827  0.9877E-02  0.9877E-02  0.4183E+00  0.4183E+00
      1.903  0.1077E-01  0.1077E-01  0.4191E+00  0.4191E+00
      1.979  0.1240E-01  0.1240E-01  0.4200E+00  0.4200E+00
      2.055  0.1236E-01  0.1236E-01  0.4210E+00  0.4210E+00
      2.131  0.1212E-01  0.1212E-01  0.4219E+00  0.4219E+00
      2.207  0.1257E-01  0.1257E-01  0.4229E+00  0.4229E+00
      2.283  0.1244E-01  0.1244E-01  0.4238E+00  0.4238E+00
      2.359  0.1165E-01  0.1165E-01  0.4247E+00  0.4247E+00
      2.434  0.9780E-02  0.9780E-02  0.4254E+00  0.4254E+00
      2.510  0.8480E-02  0.8480E-02  0.4261E+00  0.4261E+00
      2.586  0.9315E-02  0.9315E-02  0.4268E+00  0.4268E+00
      2.662  0.1331E-01  0.1331E-01  0.4278E+00  0.4278E+00
      2.738  0.1482E-01  0.1482E-01  0.4289E+00  0.4289E+00
      2.814  0.1164E-01  0.1164E-01  0.4298E+00  0.4298E+00
      2.890  0.1021E-01  0.1021E-01  0.4306E+00  0.4306E+00
      2.966  0.1090E-01  0.1090E-01  0.4314E+00  0.4314E+00
      3.042  0.1231E-01  0.1231E-01  0.4323E+00  0.4323E+00
      3.117  0.1313E-01  0.1313E-01  0.4333E+00  0.4333E+00
      3.193  0.1210E-01  0.1210E-01  0.4343E+00  0.4343E+00
      3.269  0.9864E-02  0.9864E-02  0.4350E+00  0.4350E+00
      3.345  0.9555E-02  0.9555E-02  0.4357E+00  0.4357E+00
      3.421  0.1231E-01  0.1231E-01  0.4367E+00  0.4367E+00
      3.497  0.1468E-01  0.1468E-01  0.4378E+00  0.4378E+00
      3.573  0.1306E-01  0.1306E-01  0.4388E+00  0.4388E+00
      3.649  0.1364E-01  0.1364E-01  0.4398E+00  0.4398E+00
      3.725  0.1724E-01  0.1724E-01  0.4411E+00  0.4411E+00
      3.800  0.1879E-01  0.1879E-01  0.4425E+00  0.4425E+00
      3.876  0.1824E-01  0.1824E-01  0.4439E+00  0.4439E+00
      3.952  0.1549E-01  0.1549E-01  0.4451E+00  0.4451E+00
      4.028  0.1314E-01  0.1314E-01  0.4461E+00  0.4461E+00
      4.104  0.1338E-01  0.1338E-01  0.4471E+00  0.4471E+00
      4.180  0.1385E-01  0.1385E-01  0.4482E+00  0.4482E+00
      4.256  0.1415E-01  0.1415E-01  0.4492E+00  0.4492E+00
      4.332  0.1219E-01  0.1219E-01  0.4502E+00  0.4502E+00
      4.408  0.1050E-01  0.1050E-01  0.4510E+00  0.4510E+00
      4.484  0.1308E-01  0.1308E-01  0.4519E+00  0.4519E+00
      4.559  0.1625E-01  0.1625E-01  0.4532E+00  0.4532E+00
      4.635  0.1674E-01  0.1674E-01  0.4544E+00  0.4544E+00
      4.711  0.1629E-01  0.1629E-01  0.4557E+00  0.4557E+00
      4.787  0.1549E-01  0.1549E-01  0.4569E+00  0.4569E+00
      4.863  0.1487E-01  0.1487E-01  0.4580E+00  0.4580E+00
      4.939  0.1614E-01  0.1614E-01  0.4592E+00  0.4592E+00
      5.015  0.1760E-01  0.1760E-01  0.4606E+00  0.4606E+00
      5.091  0.1662E-01  0.1662E-01  0.4618E+00  0.4618E+00
      5.167  0.1428E-01  0.1428E-01  0.4629E+00  0.4629E+00
      5.242  0.1546E-01  0.1546E-01  0.4641E+00  0.4641E+00
      5.318  0.1721E-01  0.1720E-01  0.4654E+00  0.4654E+00
      5.394  0.1647E-01  0.1647E-01  0.4666E+00  0.4666E+00
      5.470  0.1350E-01  0.1350E-01  0.4676E+00  0.4676E+00
      5.546  0.1139E-01  0.1139E-01  0.4685E+00  0.4685E+00
      5.622  0.1445E-01  0.1445E-01  0.4696E+00  0.4696E+00
      5.698  0.1807E-01  0.1807E-01  0.4710E+00  0.4710E+00
      5.774  0.2172E-01  0.2172E-01  0.4726E+00  0.4726E+00
      5.850  0.2436E-01  0.2436E-01  0.4745E+00  0.4745E+00
      5.925  0.2335E-01  0.2335E-01  0.4763E+00  0.4763E+00
      6.001  0.1914E-01  0.1914E-01  0.4777E+00  0.4777E+00
      6.077  0.1790E-01  0.1789E-01  0.4791E+00  0.4791E+00
      6.153  0.1859E-01  0.1860E-01  0.4805E+00  0.4805E+00
      6.229  0.1833E-01  0.1838E-01  0.4819E+00  0.4819E+00
      6.305  0.1438E-01  0.1443E-01  0.4830E+00  0.4830E+00
      6.381  0.8045E-02  0.8079E-02  0.4836E+00  0.4836E+00
      6.457  0.4104E-02  0.4066E-02  0.4839E+00  0.4839E+00
      6.533  0.1401E-02  0.1343E-02  0.4840E+00  0.4840E+00
      6.608  0.2011E-03  0.1856E-03  0.4840E+00  0.4840E+00
      6.684  0.1047E-04  0.9272E-05  0.4840E+00  0.4840E+00
      6.760  0.1891E-06  0.1606E-06  0.4840E+00  0.4840E+00
      6.836  0.1159E-08  0.9442E-09  0.4840E+00  0.4840E+00
      6.912  0.2372E-11  0.1853E-11  0.4840E+00  0.4840E+00
      6.988  0.1600E-14  0.1200E-14  0.4840E+00  0.4840E+00
      7.064  0.1625E-18  0.1625E-18  0.4840E+00  0.4840E+00
      7.140  0.0000E+00  0.0000E+00  0.4840E+00  0.4840E+00
      7.216  0.0000E+00  0.0000E+00  0.4840E+00  0.4840E+00
      7.291  0.0000E+00  0.0000E+00  0.4840E+00  0.4840E+00
      7.367  0.0000E+00  0.0000E+00  0.4840E+00  0.4840E+00
      7.443  0.0000E+00  0.0000E+00  0.4840E+00  0.4840E+00
