<?xml version="1.0" encoding="ISO-8859-1"?>
<modeling>
 <generator>
  <i name="program" type="string">vasp </i>
  <i name="version" type="string">5.4.4.18Apr17-6-g9f103f2a35  </i>
  <i name="subversion" type="string">(build Sep 18 2020 13:42:41) complex            parallel </i>
  <i name="platform" type="string">Eagle </i>
  <i name="date" type="string">2021 12 14 </i>
  <i name="time" type="string">15:14:33 </i>
 </generator>
 <incar>
  <i type="string" name="SYSTEM"> CatImpurities</i>
  <i type="string" name="PREC">accurate</i>
  <i type="string" name="ALGO"> Fast</i>
  <i type="int" name="ISPIN">     2</i>
  <i type="int" name="NELM">  1000</i>
  <i type="int" name="NELMDL">    -5</i>
  <i type="int" name="IBRION">     3</i>
  <i name="EDIFFG">     -0.02000000</i>
  <i type="int" name="NSW">   500</i>
  <i type="int" name="ISYM">     2</i>
  <i name="ENCUT">    400.00000000</i>
  <i name="POTIM">      0.00000000</i>
  <v name="MAGMOM">      1.00000000      0.00000000      0.00000000      0.00000000      0.00000000      0.00000000      0.00000000      0.00000000      0.00000000      0.00000000      0.00000000      0.00000000      0.00000000      0.00000000      0.00000000      0.00000000      0.00000000      0.00000000      0.00000000      0.00000000
      0.00000000      0.00000000      0.00000000      0.00000000      0.00000000      0.00000000      0.00000000      0.00000000      0.00000000      0.00000000      0.00000000      0.00000000      0.00000000      0.00000000      0.00000000      0.00000000      0.00000000</v>
  <i type="string" name="LREAL"> Auto</i>
  <i type="int" name="ISMEAR">     0</i>
  <i name="SIGMA">      0.10000000</i>
  <i type="logical" name="LWAVE"> F  </i>
  <i type="logical" name="LCHARG"> F  </i>
  <v type="int" name="KPOINT_BSE">    -1     0     0     0</v>
  <i type="int" name="NELM">  1000</i>
  <i type="logical" name="LDIPOL"> T  </i>
  <i type="int" name="IDIPOL">     3</i>
 </incar>
 <structure name="primitive_cell" >
  <crystal>
   <varray name="basis" >
    <v>       8.64225908       0.00000000       0.00000000 </v>
    <v>       0.00000000       8.64225908       0.00000000 </v>
    <v>       0.00000000       0.00000000      22.11100000 </v>
   </varray>
   <i name="volume">   1651.44056326 </i>
   <varray name="rec_basis" >
    <v>       0.11571049       0.00000000       0.00000000 </v>
    <v>       0.00000000       0.11571049       0.00000000 </v>
    <v>       0.00000000       0.00000000       0.04522636 </v>
   </varray>
  </crystal>
  <varray name="positions" >
   <v>       0.17000000       0.00500000       0.40986371 </v>
   <v>       0.33333333       0.00000000       0.27870728 </v>
   <v>       0.00000000       0.00000000       0.27870728 </v>
   <v>       0.33333333       0.33333333       0.27870728 </v>
   <v>       0.00000000       0.33333333       0.27870728 </v>
   <v>       0.33333333      -0.33333333       0.27870728 </v>
   <v>       0.00000000      -0.33333333       0.27870728 </v>
   <v>       0.16666667       0.16666667       0.18558292 </v>
   <v>       0.16666667      -0.16666667       0.18558292 </v>
   <v>      -0.33333333       0.00000000       0.27870728 </v>
   <v>      -0.50000000       0.16666667       0.18558292 </v>
   <v>      -0.33333333       0.33333333       0.27870728 </v>
   <v>      -0.50000000      -0.16666667       0.18558292 </v>
   <v>      -0.16666667       0.16666667       0.18558292 </v>
   <v>      -0.16666667      -0.16666667       0.18558292 </v>
   <v>      -0.33333333      -0.33333333       0.27870728 </v>
   <v>       0.16666667      -0.50000000       0.18558292 </v>
   <v>      -0.50000000      -0.50000000       0.18558292 </v>
   <v>       0.33333333       0.00000000       0.09212609 </v>
   <v>      -0.16666667      -0.50000000       0.18558292 </v>
   <v>       0.00000000       0.00000000       0.09212609 </v>
   <v>       0.33333333       0.33333333       0.09212609 </v>
   <v>       0.00000000       0.33333333       0.09212609 </v>
   <v>       0.33333333      -0.33333333       0.09212609 </v>
   <v>       0.00000000      -0.33333333       0.09212609 </v>
   <v>      -0.33333333       0.00000000       0.09212609 </v>
   <v>      -0.33333333       0.33333333       0.09212609 </v>
   <v>      -0.33333333      -0.33333333       0.09212609 </v>
   <v>       0.16666667       0.16666667       0.00000000 </v>
   <v>       0.16666667      -0.16666667       0.00000000 </v>
   <v>      -0.50000000       0.16666667       0.00000000 </v>
   <v>      -0.50000000      -0.16666667       0.00000000 </v>
   <v>      -0.16666667       0.16666667       0.00000000 </v>
   <v>      -0.16666667      -0.16666667       0.00000000 </v>
   <v>       0.16666667      -0.50000000       0.00000000 </v>
   <v>      -0.50000000      -0.50000000       0.00000000 </v>
   <v>      -0.16666667      -0.50000000       0.00000000 </v>
  </varray>
 </structure>
 <varray name="primitive_index" >
  <v type="int" >        1 </v>
  <v type="int" >        3 </v>
  <v type="int" >        2 </v>
  <v type="int" >        6 </v>
  <v type="int" >        5 </v>
  <v type="int" >        9 </v>
  <v type="int" >        8 </v>
  <v type="int" >       11 </v>
  <v type="int" >       17 </v>
  <v type="int" >        4 </v>
  <v type="int" >       12 </v>
  <v type="int" >        7 </v>
  <v type="int" >       18 </v>
  <v type="int" >       13 </v>
  <v type="int" >       19 </v>
  <v type="int" >       10 </v>
  <v type="int" >       14 </v>
  <v type="int" >       15 </v>
  <v type="int" >       21 </v>
  <v type="int" >       16 </v>
  <v type="int" >       20 </v>
  <v type="int" >       24 </v>
  <v type="int" >       23 </v>
  <v type="int" >       27 </v>
  <v type="int" >       26 </v>
  <v type="int" >       22 </v>
  <v type="int" >       25 </v>
  <v type="int" >       28 </v>
  <v type="int" >       29 </v>
  <v type="int" >       35 </v>
  <v type="int" >       30 </v>
  <v type="int" >       36 </v>
  <v type="int" >       31 </v>
  <v type="int" >       37 </v>
  <v type="int" >       32 </v>
  <v type="int" >       33 </v>
  <v type="int" >       34 </v>
 </varray>
 <kpoints>
  <generation param="Monkhorst-Pack">
   <v type="int" name="divisions">       6        6        1 </v>
   <v name="usershift">      0.00000000       0.00000000       0.00000000 </v>
   <v name="genvec1">      0.16666667       0.00000000       0.00000000 </v>
   <v name="genvec2">      0.00000000       0.16666667       0.00000000 </v>
   <v name="genvec3">      0.00000000       0.00000000       1.00000000 </v>
   <v name="shift">      0.50000000       0.50000000       0.00000000 </v>
  </generation>
  <varray name="kpointlist" >
   <v>       0.08333333       0.08333333       0.00000000 </v>
   <v>       0.25000000       0.08333333       0.00000000 </v>
   <v>       0.41666667       0.08333333       0.00000000 </v>
   <v>      -0.41666667       0.08333333       0.00000000 </v>
   <v>      -0.25000000       0.08333333       0.00000000 </v>
   <v>      -0.08333333       0.08333333       0.00000000 </v>
   <v>       0.08333333       0.25000000       0.00000000 </v>
   <v>       0.25000000       0.25000000       0.00000000 </v>
   <v>       0.41666667       0.25000000       0.00000000 </v>
   <v>      -0.41666667       0.25000000       0.00000000 </v>
   <v>      -0.25000000       0.25000000       0.00000000 </v>
   <v>      -0.08333333       0.25000000       0.00000000 </v>
   <v>       0.08333333       0.41666667       0.00000000 </v>
   <v>       0.25000000       0.41666667       0.00000000 </v>
   <v>       0.41666667       0.41666667       0.00000000 </v>
   <v>      -0.41666667       0.41666667       0.00000000 </v>
   <v>      -0.25000000       0.41666667       0.00000000 </v>
   <v>      -0.08333333       0.41666667       0.00000000 </v>
  </varray>
  <varray name="weights" >
   <v>       0.05555556 </v>
   <v>       0.05555556 </v>
   <v>       0.05555556 </v>
   <v>       0.05555556 </v>
   <v>       0.05555556 </v>
   <v>       0.05555556 </v>
   <v>       0.05555556 </v>
   <v>       0.05555556 </v>
   <v>       0.05555556 </v>
   <v>       0.05555556 </v>
   <v>       0.05555556 </v>
   <v>       0.05555556 </v>
   <v>       0.05555556 </v>
   <v>       0.05555556 </v>
   <v>       0.05555556 </v>
   <v>       0.05555556 </v>
   <v>       0.05555556 </v>
   <v>       0.05555556 </v>
  </varray>
 </kpoints>
 <parameters>
  <separator name="general" >
   <i type="string" name="SYSTEM">CatImpurities</i>
   <i type="logical" name="LCOMPAT"> F  </i>
  </separator>
  <separator name="electronic" >
   <i type="string" name="PREC">accura</i>
   <i name="ENMAX">    400.00000000</i>
   <i name="ENAUG">    412.49600000</i>
   <i name="EDIFF">      0.00010000</i>
   <i type="int" name="IALGO">    68</i>
   <i type="int" name="IWAVPR">    11</i>
   <i type="int" name="NBANDS">   242</i>
   <i name="NELECT">    403.00000000</i>
   <i type="int" name="TURBO">     0</i>
   <i type="int" name="IRESTART">     0</i>
   <i type="int" name="NREBOOT">     0</i>
   <i type="int" name="NMIN">     0</i>
   <i name="EREF">      0.00000000</i>
   <separator name="electronic smearing" >
    <i type="int" name="ISMEAR">     0</i>
    <i name="SIGMA">      0.10000000</i>
    <i name="KSPACING">      0.50000000</i>
    <i type="logical" name="KGAMMA"> T  </i>
   </separator>
   <separator name="electronic projectors" >
    <i type="logical" name="LREAL"> T  </i>
    <v name="ROPT">     -0.00025000     -0.00025000</v>
    <i type="int" name="LMAXPAW">  -100</i>
    <i type="int" name="LMAXMIX">     2</i>
    <i type="logical" name="NLSPLINE"> F  </i>
   </separator>
   <separator name="electronic startup" >
    <i type="int" name="ISTART">     0</i>
    <i type="int" name="ICHARG">     2</i>
    <i type="int" name="INIWAV">     1</i>
   </separator>
   <separator name="electronic spin" >
    <i type="int" name="ISPIN">     2</i>
    <i type="logical" name="LNONCOLLINEAR"> F  </i>
    <v name="MAGMOM">      1.00000000      0.00000000      0.00000000      0.00000000      0.00000000      0.00000000      0.00000000      0.00000000      0.00000000      0.00000000      0.00000000      0.00000000      0.00000000      0.00000000      0.00000000      0.00000000      0.00000000      0.00000000      0.00000000      0.00000000
      0.00000000      0.00000000      0.00000000      0.00000000      0.00000000      0.00000000      0.00000000      0.00000000      0.00000000      0.00000000      0.00000000      0.00000000      0.00000000      0.00000000      0.00000000      0.00000000      0.00000000</v>
    <i name="NUPDOWN">     -1.00000000</i>
    <i type="logical" name="LSORBIT"> F  </i>
    <v name="SAXIS">      0.00000000      0.00000000      1.00000000</v>
    <i type="logical" name="LSPIRAL"> F  </i>
    <v name="QSPIRAL">      0.00000000      0.00000000      0.00000000</v>
    <i type="logical" name="LZEROZ"> F  </i>
   </separator>
   <separator name="electronic exchange-correlation" >
    <i type="logical" name="LASPH"> F  </i>
    <i type="logical" name="LMETAGGA"> F  </i>
   </separator>
   <separator name="electronic convergence" >
    <i type="int" name="NELM">  1000</i>
    <i type="int" name="NELMDL">    -5</i>
    <i type="int" name="NELMIN">     2</i>
    <i name="ENINI">    400.00000000</i>
    <separator name="electronic convergence detail" >
     <i type="logical" name="LDIAG"> T  </i>
     <i type="logical" name="LSUBROT"> F  </i>
     <i name="WEIMIN">      0.00100000</i>
     <i name="EBREAK">      0.00000010</i>
     <i name="DEPER">      0.30000000</i>
     <i type="int" name="NRMM">     4</i>
     <i name="TIME">      0.40000000</i>
    </separator>
   </separator>
   <separator name="electronic mixer" >
    <i name="AMIX">      0.40000000</i>
    <i name="BMIX">      1.00000000</i>
    <i name="AMIN">      0.10000000</i>
    <i name="AMIX_MAG">      1.60000000</i>
    <i name="BMIX_MAG">      1.00000000</i>
    <separator name="electronic mixer details" >
     <i type="int" name="IMIX">     4</i>
     <i type="logical" name="MIXFIRST"> F  </i>
     <i type="int" name="MAXMIX">   -45</i>
     <i name="WC">    100.00000000</i>
     <i type="int" name="INIMIX">     1</i>
     <i type="int" name="MIXPRE">     1</i>
     <i type="int" name="MREMOVE">     5</i>
    </separator>
   </separator>
   <separator name="electronic dipolcorrection" >
    <i type="logical" name="LDIPOL"> T  </i>
    <i type="logical" name="LMONO"> F  </i>
    <i type="int" name="IDIPOL">     3</i>
    <i name="EPSILON">      1.00000000</i>
    <v name="DIPOL">   -100.00000000   -100.00000000   -100.00000000</v>
    <i name="EFIELD">      0.00000000</i>
   </separator>
  </separator>
  <separator name="grids" >
   <i type="int" name="NGX">    56</i>
   <i type="int" name="NGY">    56</i>
   <i type="int" name="NGZ">   144</i>
   <i type="int" name="NGXF">   112</i>
   <i type="int" name="NGYF">   112</i>
   <i type="int" name="NGZF">   288</i>
   <i type="logical" name="ADDGRID"> F  </i>
  </separator>
  <separator name="ionic" >
   <i type="int" name="NSW">   500</i>
   <i type="int" name="IBRION">     3</i>
   <i type="int" name="MDALGO">     0</i>
   <i type="int" name="ISIF">     2</i>
   <i name="PSTRESS">      0.00000000</i>
   <i name="EDIFFG">     -0.02000000</i>
   <i type="int" name="NFREE">     0</i>
   <i name="POTIM">      0.00000000</i>
   <i name="SMASS">     -3.00000000</i>
   <i name="SCALEE">      1.00000000</i>
  </separator>
  <separator name="ionic md" >
   <i name="TEBEG">      0.00010000</i>
   <i name="TEEND">      0.00010000</i>
   <i type="int" name="NBLOCK">     1</i>
   <i type="int" name="KBLOCK">   500</i>
   <i type="int" name="NPACO">   256</i>
   <i name="APACO">     16.00000000</i>
  </separator>
  <separator name="symmetry" >
   <i type="int" name="ISYM">     2</i>
   <i name="SYMPREC">      0.00001000</i>
  </separator>
  <separator name="dos" >
   <i type="int" name="LORBIT">     0</i>
   <v name="RWIGS">     -1.00000000     -1.00000000</v>
   <i type="int" name="NEDOS">   301</i>
   <i name="EMIN">     10.00000000</i>
   <i name="EMAX">    -10.00000000</i>
   <i name="EFERMI">      0.00000000</i>
  </separator>
  <separator name="writing" >
   <i type="int" name="NWRITE">     2</i>
   <i type="logical" name="LWAVE"> F  </i>
   <i type="logical" name="LDOWNSAMPLE"> F  </i>
   <i type="logical" name="LCHARG"> F  </i>
   <i type="logical" name="LPARD"> F  </i>
   <i type="logical" name="LVTOT"> F  </i>
   <i type="logical" name="LVHAR"> F  </i>
   <i type="logical" name="LELF"> F  </i>
   <i type="logical" name="LOPTICS"> F  </i>
   <v name="STM">      0.00000000      0.00000000      0.00000000      0.00000000      0.00000000      0.00000000      0.00000000</v>
  </separator>
  <separator name="performance" >
   <i type="int" name="NPAR">     1</i>
   <i type="int" name="NSIM">     4</i>
   <i type="int" name="NBLK">    -1</i>
   <i type="logical" name="LPLANE"> T  </i>
   <i type="logical" name="LSCALAPACK"> T  </i>
   <i type="logical" name="LSCAAWARE"> F  </i>
   <i type="logical" name="LSCALU"> F  </i>
   <i type="logical" name="LASYNC"> F  </i>
   <i type="logical" name="LORBITALREAL"> F  </i>
  </separator>
  <separator name="miscellaneous" >
   <i type="int" name="IDIOT">     3</i>
   <i type="int" name="ISPECIAL">     0</i>
   <i type="logical" name="LMUSIC"> F  </i>
   <v name="POMASS">     35.45300000    107.86800000</v>
   <v name="DARWINR">      0.00000000      0.00000000</v>
   <v name="DARWINV">      1.00000000      1.00000000</v>
   <i type="logical" name="LCORR"> T  </i>
  </separator>
  <i type="logical" name="GGA_COMPAT"> T  </i>
  <i type="logical" name="LBERRY"> F  </i>
  <i type="int" name="ICORELEVEL">     0</i>
  <i type="logical" name="LDAU"> F  </i>
  <i type="int" name="I_CONSTRAINED_M">     0</i>
  <separator name="electronic exchange-correlation" >
   <i type="string" name="GGA">--</i>
   <i type="int" name="VOSKOWN">     0</i>
   <i type="logical" name="LHFCALC"> F  </i>
   <i type="string" name="PRECFOCK"></i>
   <i type="logical" name="LSYMGRAD"> F  </i>
   <i type="logical" name="LHFONE"> F  </i>
   <i type="logical" name="LRHFCALC"> F  </i>
   <i type="logical" name="LTHOMAS"> F  </i>
   <i type="logical" name="LMODELHF"> F  </i>
   <i name="ENCUT4O">     -1.00000000</i>
   <i type="int" name="EXXOEP">     0</i>
   <i type="int" name="FOURORBIT">     0</i>
   <i name="AEXX">      0.00000000</i>
   <i name="HFALPHA">      0.00000000</i>
   <i name="MCALPHA">      0.00000000</i>
   <i name="ALDAX">      1.00000000</i>
   <i name="AGGAX">      1.00000000</i>
   <i name="ALDAC">      1.00000000</i>
   <i name="AGGAC">      1.00000000</i>
   <i type="int" name="NKREDX">     1</i>
   <i type="int" name="NKREDY">     1</i>
   <i type="int" name="NKREDZ">     1</i>
   <i type="logical" name="SHIFTRED"> F  </i>
   <i type="logical" name="ODDONLY"> F  </i>
   <i type="logical" name="EVENONLY"> F  </i>
   <i type="int" name="LMAXFOCK">     0</i>
   <i type="int" name="NMAXFOCKAE">     0</i>
   <i type="logical" name="LFOCKAEDFT"> F  </i>
   <i name="HFSCREEN">      0.00000000</i>
   <i name="HFSCREENC">      0.00000000</i>
   <i type="int" name="NBANDSGWLOW">     0</i>
  </separator>
  <separator name="vdW DFT" >
   <i type="logical" name="LUSE_VDW"> F  </i>
   <i name="Zab_VDW">     -0.84910000</i>
   <i name="PARAM1">      0.12340000</i>
   <i name="PARAM2">      1.00000000</i>
   <i name="PARAM3">      0.00000000</i>
  </separator>
  <separator name="model GW" >
   <i type="int" name="MODEL_GW">     0</i>
   <i name="MODEL_EPS0">     26.78011724</i>
   <i name="MODEL_ALPHA">      1.00000000</i>
  </separator>
  <separator name="linear response parameters" >
   <i type="logical" name="LEPSILON"> F  </i>
   <i type="logical" name="LRPA"> F  </i>
   <i type="logical" name="LNABLA"> F  </i>
   <i type="logical" name="LVEL"> F  </i>
   <i type="int" name="KINTER">     0</i>
   <i name="CSHIFT">      0.10000000</i>
   <i name="OMEGAMAX">     -1.00000000</i>
   <i name="DEG_THRESHOLD">      0.00200000</i>
   <i name="RTIME">     -0.10000000</i>
   <i name="WPLASMAI">      0.00000000</i>
   <v name="DFIELD">      0.00000000      0.00000000      0.00000000</v>
   <v name="WPLASMA">      0.00000000      0.00000000      0.00000000      0.00000000      0.00000000      0.00000000      0.00000000      0.00000000      0.00000000</v>
  </separator>
  <separator name="orbital magnetization" >
   <i type="logical" name="NUCIND"> F  </i>
   <v name="MAGPOS">      0.00000000      0.00000000      0.00000000</v>
   <i type="logical" name="LNICSALL"> T  </i>
   <i type="logical" name="ORBITALMAG"> F  </i>
   <i type="logical" name="LMAGBLOCH"> F  </i>
   <i type="logical" name="LCHIMAG"> F  </i>
   <i type="logical" name="LGAUGE"> T  </i>
   <i type="int" name="MAGATOM">     0</i>
   <v name="MAGDIPOL">      0.00000000      0.00000000      0.00000000</v>
   <v name="AVECCONST">      0.00000000      0.00000000      0.00000000</v>
  </separator>
  <separator name="response functions" >
   <i type="logical" name="LADDER"> F  </i>
   <i type="logical" name="LRPAFORCE"> F  </i>
   <i type="logical" name="LFXC"> F  </i>
   <i type="logical" name="LHARTREE"> T  </i>
   <i type="int" name="IBSE">     0</i>
   <v type="int" name="KPOINT">    -1     0     0     0</v>
   <i type="logical" name="LTCTE"> F  </i>
   <i type="logical" name="LTETE"> F  </i>
   <i type="logical" name="LTRIPLET"> F  </i>
   <i type="logical" name="LFXCEPS"> F  </i>
   <i type="logical" name="LFXHEG"> F  </i>
   <i type="int" name="NATURALO">     2</i>
   <i type="logical" name="L2ORDER"> F  </i>
   <i type="logical" name="LMP2LT"> F  </i>
   <i type="logical" name="LUSEW"> F  </i>
   <i name="ENCUTGW">     -2.00000000</i>
   <i name="ENCUTGWSOFT">     -2.00000000</i>
   <i name="ENCUTLF">     -1.00000000</i>
   <i type="int" name="LMAXMP2">    -1</i>
   <i name="SCISSOR">      0.00000000</i>
   <i type="int" name="NOMEGA">     0</i>
   <i type="int" name="NOMEGAR">     0</i>
   <i type="int" name="NBANDSGW">    -1</i>
   <i type="int" name="NBANDSO">    -1</i>
   <i type="int" name="NBANDSV">    -1</i>
   <i type="int" name="NELM">  1000</i>
   <i type="int" name="NELMHF">     1</i>
   <i type="int" name="DIM">     3</i>
   <i type="int" name="ANTIRES">     0</i>
   <i name="OMEGAMAX">    -30.00000000</i>
   <i name="OMEGAMIN">    -30.00000000</i>
   <i name="OMEGATL">   -200.00000000</i>
   <i type="int" name="OMEGAGRID">   140</i>
   <i name="CSHIFT">     -0.10000000</i>
   <i type="logical" name="SELFENERGY"> F  </i>
   <i type="logical" name="LSPECTRAL"> F  </i>
   <i type="logical" name="LSPECTRALGW"> F  </i>
   <i type="logical" name="LSINGLES"> F  </i>
   <i type="logical" name="LFERMIGW"> F  </i>
   <i type="logical" name="ODDONLYGW"> F  </i>
   <i type="logical" name="EVENONLYGW"> F  </i>
   <i type="int" name="NKREDLFX">     1</i>
   <i type="int" name="NKREDLFY">     1</i>
   <i type="int" name="NKREDLFZ">     1</i>
   <i type="int" name="MAXMEM">  2800</i>
   <i type="int" name="TELESCOPE">     0</i>
   <i type="int" name="TAUPAR">     1</i>
   <i type="int" name="OMEGAPAR">    -1</i>
   <i name="LAMBDA">      1.00000000</i>
  </separator>
  <separator name="External order field" >
   <i name="OFIELD_KAPPA">      0.00000000</i>
   <v name="OFIELD_K">      0.00000000      0.00000000      0.00000000</v>
   <i name="OFIELD_Q6_NEAR">      0.00000000</i>
   <i name="OFIELD_Q6_FAR">      0.00000000</i>
   <i name="OFIELD_A">      0.00000000</i>
  </separator>
  <separator name="solvation model" >
   <i type="logical" name="LSOL"> F  </i>
  </separator>
 </parameters>
 <atominfo>
  <atoms>      37 </atoms>
  <types>       2 </types>
  <array name="atoms" >
   <dimension dim="1">ion</dimension>
   <field type="string">element</field>
   <field type="int">atomtype</field>
   <set>
    <rc><c>Cl</c><c>   1</c></rc>
    <rc><c>Ag</c><c>   2</c></rc>
    <rc><c>Ag</c><c>   2</c></rc>
    <rc><c>Ag</c><c>   2</c></rc>
    <rc><c>Ag</c><c>   2</c></rc>
    <rc><c>Ag</c><c>   2</c></rc>
    <rc><c>Ag</c><c>   2</c></rc>
    <rc><c>Ag</c><c>   2</c></rc>
    <rc><c>Ag</c><c>   2</c></rc>
    <rc><c>Ag</c><c>   2</c></rc>
    <rc><c>Ag</c><c>   2</c></rc>
    <rc><c>Ag</c><c>   2</c></rc>
    <rc><c>Ag</c><c>   2</c></rc>
    <rc><c>Ag</c><c>   2</c></rc>
    <rc><c>Ag</c><c>   2</c></rc>
    <rc><c>Ag</c><c>   2</c></rc>
    <rc><c>Ag</c><c>   2</c></rc>
    <rc><c>Ag</c><c>   2</c></rc>
    <rc><c>Ag</c><c>   2</c></rc>
    <rc><c>Ag</c><c>   2</c></rc>
    <rc><c>Ag</c><c>   2</c></rc>
    <rc><c>Ag</c><c>   2</c></rc>
    <rc><c>Ag</c><c>   2</c></rc>
    <rc><c>Ag</c><c>   2</c></rc>
    <rc><c>Ag</c><c>   2</c></rc>
    <rc><c>Ag</c><c>   2</c></rc>
    <rc><c>Ag</c><c>   2</c></rc>
    <rc><c>Ag</c><c>   2</c></rc>
    <rc><c>Ag</c><c>   2</c></rc>
    <rc><c>Ag</c><c>   2</c></rc>
    <rc><c>Ag</c><c>   2</c></rc>
    <rc><c>Ag</c><c>   2</c></rc>
    <rc><c>Ag</c><c>   2</c></rc>
    <rc><c>Ag</c><c>   2</c></rc>
    <rc><c>Ag</c><c>   2</c></rc>
    <rc><c>Ag</c><c>   2</c></rc>
    <rc><c>Ag</c><c>   2</c></rc>
   </set>
  </array>
  <array name="atomtypes" >
   <dimension dim="1">type</dimension>
   <field type="int">atomspertype</field>
   <field type="string">element</field>
   <field>mass</field>
   <field>valence</field>
   <field type="string">pseudopotential</field>
   <set>
    <rc><c>   1</c><c>Cl</c><c>     35.45300000</c><c>      7.00000000</c><c>  PAW_PBE Cl 06Sep2000                  </c></rc>
    <rc><c>  36</c><c>Ag</c><c>    107.86800000</c><c>     11.00000000</c><c>  PAW_PBE Ag 02Apr2005                  </c></rc>
   </set>
  </array>
 </atominfo>
 <structure name="initialpos" >
  <crystal>
   <varray name="basis" >
    <v>       8.64225908       0.00000000       0.00000000 </v>
    <v>       0.00000000       8.64225908       0.00000000 </v>
    <v>       0.00000000       0.00000000      22.11100000 </v>
   </varray>
   <i name="volume">   1651.44056326 </i>
   <varray name="rec_basis" >
    <v>       0.11571049       0.00000000       0.00000000 </v>
    <v>       0.00000000       0.11571049       0.00000000 </v>
    <v>       0.00000000       0.00000000       0.04522636 </v>
   </varray>
  </crystal>
  <varray name="positions" >
   <v>       0.17000000       0.00500000       0.40986371 </v>
   <v>       0.00000000       0.00000000       0.27870728 </v>
   <v>       0.33333333       0.00000000       0.27870728 </v>
   <v>       0.66666667       0.00000000       0.27870728 </v>
   <v>       0.00000000       0.33333333       0.27870728 </v>
   <v>       0.33333333       0.33333333       0.27870728 </v>
   <v>       0.66666667       0.33333333       0.27870728 </v>
   <v>       0.00000000       0.66666667       0.27870728 </v>
   <v>       0.33333333       0.66666667       0.27870728 </v>
   <v>       0.66666667       0.66666667       0.27870728 </v>
   <v>       0.16666667       0.16666667       0.18558292 </v>
   <v>       0.50000000       0.16666667       0.18558292 </v>
   <v>       0.83333333       0.16666667       0.18558292 </v>
   <v>       0.16666667       0.50000000       0.18558292 </v>
   <v>       0.50000000       0.50000000       0.18558292 </v>
   <v>       0.83333333       0.50000000       0.18558292 </v>
   <v>       0.16666667       0.83333333       0.18558292 </v>
   <v>       0.50000000       0.83333333       0.18558292 </v>
   <v>       0.83333333       0.83333333       0.18558292 </v>
   <v>       0.00000000       0.00000000       0.09212609 </v>
   <v>       0.33333333       0.00000000       0.09212609 </v>
   <v>       0.66666667       0.00000000       0.09212609 </v>
   <v>       0.00000000       0.33333333       0.09212609 </v>
   <v>       0.33333333       0.33333333       0.09212609 </v>
   <v>       0.66666667       0.33333333       0.09212609 </v>
   <v>       0.00000000       0.66666667       0.09212609 </v>
   <v>       0.33333333       0.66666667       0.09212609 </v>
   <v>       0.66666667       0.66666667       0.09212609 </v>
   <v>       0.16666667       0.16666667       0.00000000 </v>
   <v>       0.50000000       0.16666667       0.00000000 </v>
   <v>       0.83333333       0.16666667       0.00000000 </v>
   <v>       0.16666667       0.50000000       0.00000000 </v>
   <v>       0.50000000       0.50000000       0.00000000 </v>
   <v>       0.83333333       0.50000000       0.00000000 </v>
   <v>       0.16666667       0.83333333       0.00000000 </v>
   <v>       0.50000000       0.83333333       0.00000000 </v>
   <v>       0.83333333       0.83333333       0.00000000 </v>
  </varray>
  <varray name="selective"  type="logical" >
   <v type="logical" >  T  T  T </v>
   <v type="logical" >  T  T  T </v>
   <v type="logical" >  T  T  T </v>
   <v type="logical" >  T  T  T </v>
   <v type="logical" >  T  T  T </v>
   <v type="logical" >  T  T  T </v>
   <v type="logical" >  T  T  T </v>
   <v type="logical" >  T  T  T </v>
   <v type="logical" >  T  T  T </v>
   <v type="logical" >  T  T  T </v>
   <v type="logical" >  T  T  T </v>
   <v type="logical" >  T  T  T </v>
   <v type="logical" >  T  T  T </v>
   <v type="logical" >  T  T  T </v>
   <v type="logical" >  T  T  T </v>
   <v type="logical" >  T  T  T </v>
   <v type="logical" >  T  T  T </v>
   <v type="logical" >  T  T  T </v>
   <v type="logical" >  T  T  T </v>
   <v type="logical" >  F  F  F </v>
   <v type="logical" >  F  F  F </v>
   <v type="logical" >  F  F  F </v>
   <v type="logical" >  F  F  F </v>
   <v type="logical" >  F  F  F </v>
   <v type="logical" >  F  F  F </v>
   <v type="logical" >  F  F  F </v>
   <v type="logical" >  F  F  F </v>
   <v type="logical" >  F  F  F </v>
   <v type="logical" >  F  F  F </v>
   <v type="logical" >  F  F  F </v>
   <v type="logical" >  F  F  F </v>
   <v type="logical" >  F  F  F </v>
   <v type="logical" >  F  F  F </v>
   <v type="logical" >  F  F  F </v>
   <v type="logical" >  F  F  F </v>
   <v type="logical" >  F  F  F </v>
   <v type="logical" >  F  F  F </v>
  </varray>
  <nose>
   <v>      -3.00000000       0.00000000       0.00010000       0.00010000 </v>
  </nose>
 </structure>
 <calculation>
  <scstep>
   <time name="dav">   26.02   26.04</time>
   <time name="total">   26.17   26.19</time>
   <dipole>
    <v name="dipole">      0.00000000       0.00000000       0.00004199 </v>
    <i name="Tr[quadrupol]">  -5186.42358184 </i>
    <i name="Echarged">      0.00000000 </i>
    <i name="Edipol_quadrupol">      0.00000000 </i>
    <i name="Eion">      0.00000000 </i>
   </dipole>
   <energy>
    <i name="alphaZ">    686.67022751 </i>
    <i name="ewald"> 106715.96142807 </i>
    <i name="hartreedc">-145207.13270603 </i>
    <i name="XCdc">   -364.72664018 </i>
    <i name="pawpsdc">  36449.82752988 </i>
    <i name="pawaedc"> -34789.87452727 </i>
    <i name="eentropy">     -0.07505745 </i>
    <i name="bandstr">   1054.59126715 </i>
    <i name="atom">  37751.02038712 </i>
    <i name="e_fr_energy">   2296.26190880 </i>
    <i name="e_wo_entrp">   2296.33696625 </i>
    <i name="e_0_energy">   2296.29943753 </i>
   </energy>
  </scstep>
  <scstep>
   <time name="dav">   27.73   27.73</time>
   <time name="total">   27.75   27.75</time>
   <dipole>
    <v name="dipole">      0.00000000       0.00000000       0.00004199 </v>
    <i name="Tr[quadrupol]">  -5186.42358184 </i>
    <i name="Echarged">      0.00000000 </i>
    <i name="Edipol_quadrupol">      0.00000000 </i>
    <i name="Eion">      0.00000000 </i>
   </dipole>
   <energy>
    <i name="e_fr_energy">     11.07519117 </i>
    <i name="e_wo_entrp">     11.11715214 </i>
    <i name="e_0_energy">     11.09617165 </i>
   </energy>
  </scstep>
  <scstep>
   <time name="dav">   27.75   27.76</time>
   <time name="total">   27.77   27.78</time>
   <dipole>
    <v name="dipole">      0.00000000       0.00000000       0.00004199 </v>
    <i name="Tr[quadrupol]">  -5186.42358184 </i>
    <i name="Echarged">      0.00000000 </i>
    <i name="Edipol_quadrupol">      0.00000000 </i>
    <i name="Eion">      0.00000000 </i>
   </dipole>
   <energy>
    <i name="e_fr_energy">    -99.31130314 </i>
    <i name="e_wo_entrp">    -99.25946942 </i>
    <i name="e_0_energy">    -99.28538628 </i>
   </energy>
  </scstep>
  <scstep>
   <time name="dav">   27.92   27.93</time>
   <time name="total">   27.94   27.95</time>
   <dipole>
    <v name="dipole">      0.00000000       0.00000000       0.00004199 </v>
    <i name="Tr[quadrupol]">  -5186.42358184 </i>
    <i name="Echarged">      0.00000000 </i>
    <i name="Edipol_quadrupol">      0.00000000 </i>
    <i name="Eion">      0.00000000 </i>
   </dipole>
   <energy>
    <i name="e_fr_energy">   -101.59598745 </i>
    <i name="e_wo_entrp">   -101.54365221 </i>
    <i name="e_0_energy">   -101.56981983 </i>
   </energy>
  </scstep>
  <scstep>
   <time name="dav">   28.67   28.68</time>
   <time name="total">   29.83   29.85</time>
   <dipole>
    <v name="dipole">      0.00000000       0.00000000       0.00004199 </v>
    <i name="Tr[quadrupol]">  -5186.42358184 </i>
    <i name="Echarged">      0.00000000 </i>
    <i name="Edipol_quadrupol">      0.00000000 </i>
    <i name="Eion">      0.00000000 </i>
   </dipole>
   <energy>
    <i name="e_fr_energy">   -101.65438947 </i>
    <i name="e_wo_entrp">   -101.60205447 </i>
    <i name="e_0_energy">   -101.62822197 </i>
   </energy>
  </scstep>
  <scstep>
   <time name="diag">    3.61    3.61</time>
   <time name="diis">   17.55   17.56</time>
   <time name="orth">    0.46    0.46</time>
   <time name="total">   22.92   22.93</time>
   <dipole>
    <v name="dipole">      0.00000000       0.00000000       0.44571508 </v>
    <i name="Tr[quadrupol]">  -5186.77151241 </i>
    <i name="Echarged">      0.00000000 </i>
    <i name="Edipol_quadrupol">      0.00000000 </i>
    <i name="Eion">      0.00000000 </i>
   </dipole>
   <energy>
    <i name="e_fr_energy">    -92.06029696 </i>
    <i name="e_wo_entrp">    -92.01551984 </i>
    <i name="e_0_energy">    -92.03790840 </i>
   </energy>
  </scstep>
  <scstep>
   <time name="diag">    3.75    3.75</time>
   <time name="diis">   17.24   17.24</time>
   <time name="orth">    0.46    0.46</time>
   <time name="total">   22.79   22.80</time>
   <dipole>
    <v name="dipole">      0.00000000       0.00000000      -0.09273730 </v>
    <i name="Tr[quadrupol]">  -5186.17195487 </i>
    <i name="Echarged">      0.00000000 </i>
    <i name="Edipol_quadrupol">      0.00000000 </i>
    <i name="Eion">      0.00000000 </i>
   </dipole>
   <energy>
    <i name="e_fr_energy">    -91.96267319 </i>
    <i name="e_wo_entrp">    -91.92314423 </i>
    <i name="e_0_energy">    -91.94290871 </i>
   </energy>
  </scstep>
  <scstep>
   <time name="diag">    3.61    3.61</time>
   <time name="diis">   17.49   17.50</time>
   <time name="orth">    0.50    0.50</time>
   <time name="total">   22.97   22.98</time>
   <dipole>
    <v name="dipole">      0.00000000       0.00000000       1.34293693 </v>
    <i name="Tr[quadrupol]">  -5188.68378786 </i>
    <i name="Echarged">      0.00000000 </i>
    <i name="Edipol_quadrupol">      0.00000000 </i>
    <i name="Eion">      0.00000000 </i>
   </dipole>
   <energy>
    <i name="e_fr_energy">    -96.54743346 </i>
    <i name="e_wo_entrp">    -96.46524471 </i>
    <i name="e_0_energy">    -96.50633909 </i>
   </energy>
  </scstep>
  <scstep>
   <time name="diag">    3.60    3.60</time>
   <time name="diis">   17.54   17.57</time>
   <time name="orth">    0.46    0.46</time>
   <time name="total">   22.88   22.92</time>
   <dipole>
    <v name="dipole">      0.00000000       0.00000000       0.42825471 </v>
    <i name="Tr[quadrupol]">  -5189.23290204 </i>
    <i name="Echarged">      0.00000000 </i>
    <i name="Edipol_quadrupol">      0.00000000 </i>
    <i name="Eion">      0.00000000 </i>
   </dipole>
   <energy>
    <i name="e_fr_energy">    -92.76915697 </i>
    <i name="e_wo_entrp">    -92.72550117 </i>
    <i name="e_0_energy">    -92.74732907 </i>
   </energy>
  </scstep>
  <scstep>
   <time name="diag">    3.60    3.60</time>
   <time name="diis">   17.37   17.37</time>
   <time name="orth">    0.60    0.60</time>
   <time name="total">   22.90   22.91</time>
   <dipole>
    <v name="dipole">      0.00000000       0.00000000       0.28410446 </v>
    <i name="Tr[quadrupol]">  -5187.78284207 </i>
    <i name="Echarged">      0.00000000 </i>
    <i name="Edipol_quadrupol">      0.00000000 </i>
    <i name="Eion">      0.00000000 </i>
   </dipole>
   <energy>
    <i name="e_fr_energy">    -92.27268341 </i>
    <i name="e_wo_entrp">    -92.23529743 </i>
    <i name="e_0_energy">    -92.25399042 </i>
   </energy>
  </scstep>
  <scstep>
   <time name="diag">    3.60    3.60</time>
   <time name="diis">   17.48   17.48</time>
   <time name="orth">    0.49    0.49</time>
   <time name="total">   22.85   22.86</time>
   <dipole>
    <v name="dipole">      0.00000000       0.00000000       0.35111583 </v>
    <i name="Tr[quadrupol]">  -5187.39746283 </i>
    <i name="Echarged">      0.00000000 </i>
    <i name="Edipol_quadrupol">      0.00000000 </i>
    <i name="Eion">      0.00000000 </i>
   </dipole>
   <energy>
    <i name="e_fr_energy">    -92.25049520 </i>
    <i name="e_wo_entrp">    -92.21337774 </i>
    <i name="e_0_energy">    -92.23193647 </i>
   </energy>
  </scstep>
  <scstep>
   <time name="diag">    3.60    3.60</time>
   <time name="diis">   17.04   17.05</time>
   <time name="orth">    0.46    0.46</time>
   <time name="total">   22.40   22.40</time>
   <dipole>
    <v name="dipole">      0.00000000       0.00000000       0.38680487 </v>
    <i name="Tr[quadrupol]">  -5187.13411078 </i>
    <i name="Echarged">      0.00000000 </i>
    <i name="Edipol_quadrupol">      0.00000000 </i>
    <i name="Eion">      0.00000000 </i>
   </dipole>
   <energy>
    <i name="e_fr_energy">    -92.26817086 </i>
    <i name="e_wo_entrp">    -92.23099142 </i>
    <i name="e_0_energy">    -92.24958114 </i>
   </energy>
  </scstep>
  <scstep>
   <time name="diag">    3.60    3.60</time>
   <time name="diis">   15.28   15.29</time>
   <time name="orth">    0.46    0.46</time>
   <time name="total">   20.62   20.63</time>
   <dipole>
    <v name="dipole">      0.00000000       0.00000000       0.42634403 </v>
    <i name="Tr[quadrupol]">  -5186.89117612 </i>
    <i name="Echarged">      0.00000000 </i>
    <i name="Edipol_quadrupol">      0.00000000 </i>
    <i name="Eion">      0.00000000 </i>
   </dipole>
   <energy>
    <i name="e_fr_energy">    -92.29746250 </i>
    <i name="e_wo_entrp">    -92.26013569 </i>
    <i name="e_0_energy">    -92.27879909 </i>
   </energy>
  </scstep>
  <scstep>
   <time name="diag">    3.60    3.61</time>
   <time name="diis">   17.53   17.54</time>
   <time name="orth">    0.46    0.46</time>
   <time name="total">   23.03   23.05</time>
   <dipole>
    <v name="dipole">      0.00000000       0.00000000       0.58842001 </v>
    <i name="Tr[quadrupol]">  -5185.89760765 </i>
    <i name="Echarged">      0.00000000 </i>
    <i name="Edipol_quadrupol">      0.00000000 </i>
    <i name="Eion">      0.00000000 </i>
   </dipole>
   <energy>
    <i name="e_fr_energy">    -92.46739016 </i>
    <i name="e_wo_entrp">    -92.42866645 </i>
    <i name="e_0_energy">    -92.44802831 </i>
   </energy>
  </scstep>
  <scstep>
   <time name="diag">    3.60    3.60</time>
   <time name="diis">   16.16   16.16</time>
   <time name="orth">    0.46    0.46</time>
   <time name="total">   21.50   21.50</time>
   <dipole>
    <v name="dipole">      0.00000000       0.00000000       0.64521946 </v>
    <i name="Tr[quadrupol]">  -5185.50644082 </i>
    <i name="Echarged">      0.00000000 </i>
    <i name="Edipol_quadrupol">      0.00000000 </i>
    <i name="Eion">      0.00000000 </i>
   </dipole>
   <energy>
    <i name="e_fr_energy">    -92.53605070 </i>
    <i name="e_wo_entrp">    -92.49637004 </i>
    <i name="e_0_energy">    -92.51621037 </i>
   </energy>
  </scstep>
  <scstep>
   <time name="diag">    3.63    3.63</time>
   <time name="diis">   15.08   15.08</time>
   <time name="orth">    0.47    0.47</time>
   <time name="total">   20.46   20.47</time>
   <dipole>
    <v name="dipole">      0.00000000       0.00000000       0.71249125 </v>
    <i name="Tr[quadrupol]">  -5185.30044102 </i>
    <i name="Echarged">      0.00000000 </i>
    <i name="Edipol_quadrupol">      0.00000000 </i>
    <i name="Eion">      0.00000000 </i>
   </dipole>
   <energy>
    <i name="e_fr_energy">    -92.58262825 </i>
    <i name="e_wo_entrp">    -92.54342380 </i>
    <i name="e_0_energy">    -92.56302603 </i>
   </energy>
  </scstep>
  <scstep>
   <time name="diag">    3.72    3.72</time>
   <time name="diis">   11.62   11.63</time>
   <time name="orth">    0.46    0.46</time>
   <time name="total">   17.09   17.10</time>
   <dipole>
    <v name="dipole">      0.00000000       0.00000000       0.73162879 </v>
    <i name="Tr[quadrupol]">  -5185.05399398 </i>
    <i name="Echarged">      0.00000000 </i>
    <i name="Edipol_quadrupol">      0.00000000 </i>
    <i name="Eion">      0.00000000 </i>
   </dipole>
   <energy>
    <i name="e_fr_energy">    -92.59333715 </i>
    <i name="e_wo_entrp">    -92.55365373 </i>
    <i name="e_0_energy">    -92.57349544 </i>
   </energy>
  </scstep>
  <scstep>
   <time name="diag">    3.77    3.77</time>
   <time name="diis">   11.60   11.60</time>
   <time name="orth">    0.46    0.46</time>
   <time name="total">   17.12   17.12</time>
   <dipole>
    <v name="dipole">      0.00000000       0.00000000       0.74050449 </v>
    <i name="Tr[quadrupol]">  -5185.06499102 </i>
    <i name="Echarged">      0.00000000 </i>
    <i name="Edipol_quadrupol">      0.00000000 </i>
    <i name="Eion">      0.00000000 </i>
   </dipole>
   <energy>
    <i name="e_fr_energy">    -92.59666063 </i>
    <i name="e_wo_entrp">    -92.55732982 </i>
    <i name="e_0_energy">    -92.57699522 </i>
   </energy>
  </scstep>
  <scstep>
   <time name="diag">    3.59    3.60</time>
   <time name="diis">   11.50   11.50</time>
   <time name="orth">    0.46    0.46</time>
   <time name="total">   16.84   16.84</time>
   <dipole>
    <v name="dipole">      0.00000000       0.00000000       0.75342219 </v>
    <i name="Tr[quadrupol]">  -5185.04755687 </i>
    <i name="Echarged">      0.00000000 </i>
    <i name="Edipol_quadrupol">      0.00000000 </i>
    <i name="Eion">      0.00000000 </i>
   </dipole>
   <energy>
    <i name="e_fr_energy">    -92.60054256 </i>
    <i name="e_wo_entrp">    -92.56153041 </i>
    <i name="e_0_energy">    -92.58103649 </i>
   </energy>
  </scstep>
  <scstep>
   <time name="diag">    3.59    3.59</time>
   <time name="diis">   11.18   11.18</time>
   <time name="orth">    0.46    0.46</time>
   <time name="total">   16.52   16.52</time>
   <dipole>
    <v name="dipole">      0.00000000       0.00000000       0.77128821 </v>
    <i name="Tr[quadrupol]">  -5185.09172624 </i>
    <i name="Echarged">      0.00000000 </i>
    <i name="Edipol_quadrupol">      0.00000000 </i>
    <i name="Eion">      0.00000000 </i>
   </dipole>
   <energy>
    <i name="e_fr_energy">    -92.60540690 </i>
    <i name="e_wo_entrp">    -92.56641334 </i>
    <i name="e_0_energy">    -92.58591012 </i>
   </energy>
  </scstep>
  <scstep>
   <time name="diag">    3.59    3.59</time>
   <time name="diis">   11.30   11.30</time>
   <time name="orth">    0.46    0.46</time>
   <time name="total">   16.63   16.63</time>
   <dipole>
    <v name="dipole">      0.00000000       0.00000000       0.78165758 </v>
    <i name="Tr[quadrupol]">  -5185.19807876 </i>
    <i name="Echarged">      0.00000000 </i>
    <i name="Edipol_quadrupol">      0.00000000 </i>
    <i name="Eion">      0.00000000 </i>
   </dipole>
   <energy>
    <i name="e_fr_energy">    -92.60760285 </i>
    <i name="e_wo_entrp">    -92.56879895 </i>
    <i name="e_0_energy">    -92.58820090 </i>
   </energy>
  </scstep>
  <scstep>
   <time name="diag">    3.59    3.59</time>
   <time name="diis">    9.86    9.88</time>
   <time name="orth">    0.46    0.46</time>
   <time name="total">   15.20   15.21</time>
   <dipole>
    <v name="dipole">      0.00000000       0.00000000       0.78598579 </v>
    <i name="Tr[quadrupol]">  -5185.43278469 </i>
    <i name="Echarged">      0.00000000 </i>
    <i name="Edipol_quadrupol">      0.00000000 </i>
    <i name="Eion">      0.00000000 </i>
   </dipole>
   <energy>
    <i name="e_fr_energy">    -92.60820247 </i>
    <i name="e_wo_entrp">    -92.56945940 </i>
    <i name="e_0_energy">    -92.58883093 </i>
   </energy>
  </scstep>
  <scstep>
   <time name="diag">    3.63    3.63</time>
   <time name="diis">    8.69    8.69</time>
   <time name="orth">    0.46    0.46</time>
   <time name="total">   14.07   14.07</time>
   <dipole>
    <v name="dipole">      0.00000000       0.00000000       0.78568821 </v>
    <i name="Tr[quadrupol]">  -5185.91443117 </i>
    <i name="Echarged">      0.00000000 </i>
    <i name="Edipol_quadrupol">      0.00000000 </i>
    <i name="Eion">      0.00000000 </i>
   </dipole>
   <energy>
    <i name="e_fr_energy">    -92.60831806 </i>
    <i name="e_wo_entrp">    -92.56959475 </i>
    <i name="e_0_energy">    -92.58895641 </i>
   </energy>
  </scstep>
  <scstep>
   <time name="diag">    3.59    3.59</time>
   <time name="diis">    8.10    8.11</time>
   <time name="orth">    0.46    0.46</time>
   <time name="total">   13.44   13.44</time>
   <dipole>
    <v name="dipole">      0.00000000       0.00000000       0.78680979 </v>
    <i name="Tr[quadrupol]">  -5186.26544748 </i>
    <i name="Echarged">      0.00000000 </i>
    <i name="Edipol_quadrupol">      0.00000000 </i>
    <i name="Eion">      0.00000000 </i>
   </dipole>
   <energy>
    <i name="e_fr_energy">    -92.60844236 </i>
    <i name="e_wo_entrp">    -92.56970165 </i>
    <i name="e_0_energy">    -92.58907200 </i>
   </energy>
  </scstep>
  <scstep>
   <time name="diag">    3.59    3.59</time>
   <time name="diis">    7.86    7.87</time>
   <time name="orth">    0.46    0.46</time>
   <time name="total">   12.06   12.06</time>
   <dipole>
    <v name="dipole">      0.00000000       0.00000000       0.78667075 </v>
    <i name="Tr[quadrupol]">  -5186.37983353 </i>
    <i name="Echarged">      0.00000000 </i>
    <i name="Edipol_quadrupol">      0.00000000 </i>
    <i name="Eion">      0.00000000 </i>
   </dipole>
   <energy>
    <i name="alphaZ">    728.19712398 </i>
    <i name="ewald"> 106715.96142807 </i>
    <i name="hartreedc">-144813.63730680 </i>
    <i name="XCdc">   -378.90350280 </i>
    <i name="pawpsdc">  40024.70970738 </i>
    <i name="pawaedc"> -38445.95488017 </i>
    <i name="eentropy">     -0.03874087 </i>
    <i name="bandstr">  -1673.96271017 </i>
    <i name="atom">  37751.02038712 </i>
    <i name="e_fr_energy">    -92.60849427 </i>
    <i name="e_wo_entrp">    -92.56975340 </i>
    <i name="e_0_energy">    -92.58912383 </i>
   </energy>
  </scstep>
  <structure>
   <crystal>
    <varray name="basis" >
     <v>       8.64225908       0.00000000       0.00000000 </v>
     <v>       0.00000000       8.64225908       0.00000000 </v>
     <v>       0.00000000       0.00000000      22.11100000 </v>
    </varray>
    <i name="volume">   1651.44056326 </i>
    <varray name="rec_basis" >
     <v>       0.11571049       0.00000000       0.00000000 </v>
     <v>       0.00000000       0.11571049       0.00000000 </v>
     <v>       0.00000000       0.00000000       0.04522636 </v>
    </varray>
   </crystal>
   <varray name="positions" >
    <v>       0.17000000       0.00500000       0.40986371 </v>
    <v>       0.00000000       0.00000000       0.27870728 </v>
    <v>       0.33333333       0.00000000       0.27870728 </v>
    <v>       0.66666667       0.00000000       0.27870728 </v>
    <v>       0.00000000       0.33333333       0.27870728 </v>
    <v>       0.33333333       0.33333333       0.27870728 </v>
    <v>       0.66666667       0.33333333       0.27870728 </v>
    <v>       0.00000000       0.66666667       0.27870728 </v>
    <v>       0.33333333       0.66666667       0.27870728 </v>
    <v>       0.66666667       0.66666667       0.27870728 </v>
    <v>       0.16666667       0.16666667       0.18558292 </v>
    <v>       0.50000000       0.16666667       0.18558292 </v>
    <v>       0.83333333       0.16666667       0.18558292 </v>
    <v>       0.16666667       0.50000000       0.18558292 </v>
    <v>       0.50000000       0.50000000       0.18558292 </v>
    <v>       0.83333333       0.50000000       0.18558292 </v>
    <v>       0.16666667       0.83333333       0.18558292 </v>
    <v>       0.50000000       0.83333333       0.18558292 </v>
    <v>       0.83333333       0.83333333       0.18558292 </v>
    <v>       0.00000000       0.00000000       0.09212609 </v>
    <v>       0.33333333       0.00000000       0.09212609 </v>
    <v>       0.66666667       0.00000000       0.09212609 </v>
    <v>       0.00000000       0.33333333       0.09212609 </v>
    <v>       0.33333333       0.33333333       0.09212609 </v>
    <v>       0.66666667       0.33333333       0.09212609 </v>
    <v>       0.00000000       0.66666667       0.09212609 </v>
    <v>       0.33333333       0.66666667       0.09212609 </v>
    <v>       0.66666667       0.66666667       0.09212609 </v>
    <v>       0.16666667       0.16666667       0.00000000 </v>
    <v>       0.50000000       0.16666667       0.00000000 </v>
    <v>       0.83333333       0.16666667       0.00000000 </v>
    <v>       0.16666667       0.50000000       0.00000000 </v>
    <v>       0.50000000       0.50000000       0.00000000 </v>
    <v>       0.83333333       0.50000000       0.00000000 </v>
    <v>       0.16666667       0.83333333       0.00000000 </v>
    <v>       0.50000000       0.83333333       0.00000000 </v>
    <v>       0.83333333       0.83333333       0.00000000 </v>
   </varray>
  </structure>
  <varray name="forces" >
   <v>       0.00271707      -0.00456684      -1.43127778 </v>
   <v>       0.12731444       0.00410601       0.55739132 </v>
   <v>      -0.12885200       0.00433841       0.58760881 </v>
   <v>      -0.00029466      -0.00035547      -0.03042125 </v>
   <v>      -0.00396934       0.00600730       0.02374822 </v>
   <v>       0.00323064       0.00406207       0.02661551 </v>
   <v>       0.00044841       0.00222863      -0.01736816 </v>
   <v>      -0.00523082      -0.00819051       0.01592887 </v>
   <v>       0.00456454      -0.00643500       0.01836510 </v>
   <v>       0.00042431      -0.00177659      -0.01664310 </v>
   <v>       0.00079578      -0.01414532      -0.00518272 </v>
   <v>      -0.03990635      -0.02888425       0.04781036 </v>
   <v>       0.03893118      -0.02676835       0.04746707 </v>
   <v>      -0.00061959      -0.00134299       0.04761440 </v>
   <v>      -0.00846311      -0.00096095       0.03107374 </v>
   <v>       0.00907878      -0.00091894       0.02946732 </v>
   <v>       0.00082918       0.01557386      -0.00286406 </v>
   <v>      -0.04045606       0.03005833       0.04888641 </v>
   <v>       0.03943685       0.02788812       0.04845836 </v>
   <v>       0.00655378       0.00014122       0.04637259 </v>
   <v>      -0.00562665       0.00015168       0.04745883 </v>
   <v>      -0.00090799       0.00026372       0.04531983 </v>
   <v>       0.00656955      -0.00161982       0.04721218 </v>
   <v>      -0.00628879      -0.00250320       0.04784927 </v>
   <v>      -0.00029424      -0.02351147       0.06368104 </v>
   <v>       0.00710006       0.00148994       0.04748391 </v>
   <v>      -0.00679044       0.00236147       0.04810558 </v>
   <v>      -0.00032250       0.02328276       0.06461168 </v>
   <v>       0.00030507      -0.00313165      -0.05073883 </v>
   <v>      -0.00675646      -0.01000815      -0.05656273 </v>
   <v>       0.00645845      -0.00975147      -0.05669654 </v>
   <v>       0.00011817      -0.00025356      -0.06194079 </v>
   <v>      -0.00853817      -0.00031708      -0.04774538 </v>
   <v>       0.00843365      -0.00031833      -0.04725548 </v>
   <v>       0.00031431       0.00339967      -0.05107737 </v>
   <v>      -0.00690531       0.01033175      -0.05631979 </v>
   <v>       0.00659826       0.01007501      -0.05643641 </v>
  </varray>
  <varray name="stress" >
   <v>     -13.28504067      -0.00006740       0.00879382 </v>
   <v>      -0.00006737     -12.91579731      -0.01350616 </v>
   <v>       0.00879379      -0.01350610      -5.41212120 </v>
  </varray>
  <energy>
   <i name="e_fr_energy">   -105.28651468 </i>
   <i name="e_wo_entrp">   -105.26714424 </i>
   <i name="e_0_energy">     -0.03874087 </i>
  </energy>
  <time name="totalsc">  551.00  551.23</time>
 </calculation>
 <calculation>
  <scstep>
   <time name="dav">   26.88   26.91</time>
   <time name="total">   28.21   28.24</time>
   <dipole>
    <v name="dipole">      0.00000000       0.00000000       0.78583380 </v>
    <i name="Tr[quadrupol]">  -5186.42989056 </i>
    <i name="Echarged">      0.00000000 </i>
    <i name="Edipol_quadrupol">      0.00000000 </i>
    <i name="Eion">      0.00000000 </i>
   </dipole>
   <energy>
    <i name="alphaZ">    730.81558021 </i>
    <i name="ewald"> 106713.79367338 </i>
    <i name="hartreedc">-144811.49234077 </i>
    <i name="XCdc">   -378.90557599 </i>
    <i name="pawpsdc">  40024.70703850 </i>
    <i name="pawaedc"> -38445.95330117 </i>
    <i name="eentropy">     -0.03876437 </i>
    <i name="bandstr">  -1676.56375793 </i>
    <i name="atom">  37751.02038712 </i>
    <i name="e_fr_energy">    -92.61706102 </i>
    <i name="e_wo_entrp">    -92.57829665 </i>
    <i name="e_0_energy">    -92.59767884 </i>
   </energy>
  </scstep>
  <scstep>
   <time name="diag">    3.77    3.77</time>
   <time name="diis">   12.64   12.64</time>
   <time name="orth">    0.46    0.46</time>
   <time name="total">   18.15   18.16</time>
   <dipole>
    <v name="dipole">      0.00000000       0.00000000       0.78393329 </v>
    <i name="Tr[quadrupol]">  -5186.43558514 </i>
    <i name="Echarged">      0.00000000 </i>
    <i name="Edipol_quadrupol">      0.00000000 </i>
    <i name="Eion">      0.00000000 </i>
   </dipole>
   <energy>
    <i name="e_fr_energy">    -92.61725197 </i>
    <i name="e_wo_entrp">    -92.57854461 </i>
    <i name="e_0_energy">    -92.59789829 </i>
   </energy>
  </scstep>
  <scstep>
   <time name="diag">    3.58    3.58</time>
   <time name="diis">   10.21   10.22</time>
   <time name="orth">    0.46    0.46</time>
   <time name="total">   14.40   14.41</time>
   <dipole>
    <v name="dipole">      0.00000000       0.00000000       0.78545030 </v>
    <i name="Tr[quadrupol]">  -5186.43974131 </i>
    <i name="Echarged">      0.00000000 </i>
    <i name="Edipol_quadrupol">      0.00000000 </i>
    <i name="Eion">      0.00000000 </i>
   </dipole>
   <energy>
    <i name="alphaZ">    730.79405282 </i>
    <i name="ewald"> 106713.79367338 </i>
    <i name="hartreedc">-144811.78040040 </i>
    <i name="XCdc">   -378.90627228 </i>
    <i name="pawpsdc">  40024.75017704 </i>
    <i name="pawaedc"> -38445.99364610 </i>
    <i name="eentropy">     -0.03874356 </i>
    <i name="bandstr">  -1676.25647494 </i>
    <i name="atom">  37751.02038712 </i>
    <i name="e_fr_energy">    -92.61724694 </i>
    <i name="e_wo_entrp">    -92.57850337 </i>
    <i name="e_0_energy">    -92.59787516 </i>
   </energy>
  </scstep>
  <structure>
   <crystal>
    <varray name="basis" >
     <v>       8.64225908       0.00000000       0.00000000 </v>
     <v>       0.00000000       8.64225908       0.00000000 </v>
     <v>       0.00000000       0.00000000      22.11100000 </v>
    </varray>
    <i name="volume">   1651.44056326 </i>
    <varray name="rec_basis" >
     <v>       0.11571049       0.00000000       0.00000000 </v>
     <v>       0.00000000       0.11571049       0.00000000 </v>
     <v>       0.00000000       0.00000000       0.04522636 </v>
    </varray>
   </crystal>
   <varray name="positions" >
    <v>       0.17000095       0.00499841       0.40966906 </v>
    <v>       0.00004430       0.00000143       0.27878308 </v>
    <v>       0.33328850       0.00000151       0.27878719 </v>
    <v>       0.66666656      -0.00000012       0.27870314 </v>
    <v>      -0.00000138       0.33333542       0.27871051 </v>
    <v>       0.33333446       0.33333475       0.27871090 </v>
    <v>       0.66666682       0.33333411       0.27870491 </v>
    <v>      -0.00000182       0.66666382       0.27870944 </v>
    <v>       0.33333492       0.66666443       0.27870977 </v>
    <v>       0.66666681       0.66666605       0.27870501 </v>
    <v>       0.16666694       0.16666174       0.18558221 </v>
    <v>       0.49998611       0.16665662       0.18558942 </v>
    <v>       0.83334688       0.16665735       0.18558937 </v>
    <v>       0.16666645       0.49999953       0.18558939 </v>
    <v>       0.49999706       0.49999967       0.18558714 </v>
    <v>       0.83333649       0.49999968       0.18558692 </v>
    <v>       0.16666696       0.83333875       0.18558253 </v>
    <v>       0.49998592       0.83334379       0.18558956 </v>
    <v>       0.83334706       0.83334304       0.18558951 </v>
    <v>       0.00000000       0.00000000       0.09212609 </v>
    <v>       0.33333333       0.00000000       0.09212609 </v>
    <v>       0.66666667       0.00000000       0.09212609 </v>
    <v>       0.00000000       0.33333333       0.09212609 </v>
    <v>       0.33333333       0.33333333       0.09212609 </v>
    <v>       0.66666667       0.33333333       0.09212609 </v>
    <v>       0.00000000       0.66666667       0.09212609 </v>
    <v>       0.33333333       0.66666667       0.09212609 </v>
    <v>       0.66666667       0.66666667       0.09212609 </v>
    <v>       0.16666667       0.16666667       0.00000000 </v>
    <v>       0.50000000       0.16666667       0.00000000 </v>
    <v>       0.83333333       0.16666667       0.00000000 </v>
    <v>       0.16666667       0.50000000       0.00000000 </v>
    <v>       0.50000000       0.50000000       0.00000000 </v>
    <v>       0.83333333       0.50000000       0.00000000 </v>
    <v>       0.16666667       0.83333333       0.00000000 </v>
    <v>       0.50000000       0.83333333       0.00000000 </v>
    <v>       0.83333333       0.83333333       0.00000000 </v>
   </varray>
  </structure>
  <varray name="forces" >
   <v>       0.00278203      -0.00460346      -1.41986276 </v>
   <v>       0.12397593       0.00401015       0.54652946 </v>
   <v>      -0.12555735       0.00424042       0.57628197 </v>
   <v>      -0.00029901      -0.00032922      -0.02915611 </v>
   <v>      -0.00352181       0.00537250       0.02346462 </v>
   <v>       0.00277959       0.00346147       0.02619556 </v>
   <v>       0.00042319       0.00178179      -0.01694490 </v>
   <v>      -0.00473553      -0.00745954       0.01585999 </v>
   <v>       0.00406392      -0.00573325       0.01816987 </v>
   <v>       0.00040016      -0.00135699      -0.01627749 </v>
   <v>       0.00082027      -0.01508225      -0.00241942 </v>
   <v>      -0.03956589      -0.02885982       0.04781027 </v>
   <v>       0.03857202      -0.02676394       0.04739216 </v>
   <v>      -0.00057881      -0.00131212       0.04613404 </v>
   <v>      -0.00811775      -0.00092914       0.02991409 </v>
   <v>       0.00869602      -0.00088776       0.02833451 </v>
   <v>       0.00085512       0.01648742      -0.00019426 </v>
   <v>      -0.04009457       0.03000759       0.04884761 </v>
   <v>       0.03905739       0.02785846       0.04834310 </v>
   <v>       0.00649193       0.00013754       0.04695954 </v>
   <v>      -0.00556405       0.00014745       0.04803513 </v>
   <v>      -0.00090482       0.00025884       0.04636987 </v>
   <v>       0.00651492      -0.00157917       0.04808357 </v>
   <v>      -0.00622199      -0.00245919       0.04872693 </v>
   <v>      -0.00030156      -0.02375918       0.06491291 </v>
   <v>       0.00704922       0.00145636       0.04837504 </v>
   <v>      -0.00672877       0.00232388       0.04900204 </v>
   <v>      -0.00032969       0.02353773       0.06585433 </v>
   <v>       0.00030865      -0.00316691      -0.05075238 </v>
   <v>      -0.00673752      -0.01002603      -0.05658718 </v>
   <v>       0.00643997      -0.00976917      -0.05671998 </v>
   <v>       0.00011895      -0.00025018      -0.06187865 </v>
   <v>      -0.00858524      -0.00031847      -0.04770067 </v>
   <v>       0.00848324      -0.00031866      -0.04720382 </v>
   <v>       0.00031744       0.00343328      -0.05108884 </v>
   <v>      -0.00688781       0.01035286      -0.05634653 </v>
   <v>       0.00658222       0.01009673      -0.05646361 </v>
  </varray>
  <varray name="stress" >
   <v>     -13.29484579      -0.00007181       0.00904923 </v>
   <v>      -0.00007179     -12.92222320      -0.01363681 </v>
   <v>       0.00904919      -0.01363684      -5.42046474 </v>
  </varray>
  <energy>
   <i name="e_fr_energy">   -105.29486229 </i>
   <i name="e_wo_entrp">   -105.27549051 </i>
   <i name="e_0_energy">     -0.03874356 </i>
  </energy>
  <time name="totalsc">   88.94   89.05</time>
 </calculation>
 <calculation>
  <scstep>
   <time name="dav">   26.31   26.31</time>
   <time name="total">   27.59   27.59</time>
   <dipole>
    <v name="dipole">      0.00000000       0.00000000       0.78403967 </v>
    <i name="Tr[quadrupol]">  -5183.78782691 </i>
    <i name="Echarged">      0.00000000 </i>
    <i name="Edipol_quadrupol">      0.00000000 </i>
    <i name="Eion">      0.00000000 </i>
   </dipole>
   <energy>
    <i name="alphaZ">    730.65341264 </i>
    <i name="ewald"> 106635.25228798 </i>
    <i name="hartreedc">-144733.68709993 </i>
    <i name="XCdc">   -378.94647367 </i>
    <i name="pawpsdc">  40024.67329871 </i>
    <i name="pawaedc"> -38445.91650011 </i>
    <i name="eentropy">     -0.04096806 </i>
    <i name="bandstr">  -1675.66112032 </i>
    <i name="atom">  37751.02038712 </i>
    <i name="e_fr_energy">    -92.65277564 </i>
    <i name="e_wo_entrp">    -92.61180758 </i>
    <i name="e_0_energy">    -92.63229161 </i>
   </energy>
  </scstep>
  <scstep>
   <time name="diag">    3.63    3.64</time>
   <time name="diis">   17.53   17.53</time>
   <time name="orth">    0.46    0.46</time>
   <time name="total">   23.04   23.06</time>
   <dipole>
    <v name="dipole">      0.00000000       0.00000000       0.69266707 </v>
    <i name="Tr[quadrupol]">  -5184.12194375 </i>
    <i name="Echarged">      0.00000000 </i>
    <i name="Edipol_quadrupol">      0.00000000 </i>
    <i name="Eion">      0.00000000 </i>
   </dipole>
   <energy>
    <i name="e_fr_energy">    -93.00058613 </i>
    <i name="e_wo_entrp">    -92.96265343 </i>
    <i name="e_0_energy">    -92.98161978 </i>
   </energy>
  </scstep>
  <scstep>
   <time name="diag">    3.59    3.59</time>
   <time name="diis">   17.67   17.68</time>
   <time name="orth">    0.46    0.46</time>
   <time name="total">   23.00   23.02</time>
   <dipole>
    <v name="dipole">      0.00000000       0.00000000       0.78456227 </v>
    <i name="Tr[quadrupol]">  -5184.65161835 </i>
    <i name="Echarged">      0.00000000 </i>
    <i name="Edipol_quadrupol">      0.00000000 </i>
    <i name="Eion">      0.00000000 </i>
   </dipole>
   <energy>
    <i name="e_fr_energy">    -92.97850592 </i>
    <i name="e_wo_entrp">    -92.93903979 </i>
    <i name="e_0_energy">    -92.95877286 </i>
   </energy>
  </scstep>
  <scstep>
   <time name="diag">    3.60    3.60</time>
   <time name="diis">   17.58   17.59</time>
   <time name="orth">    0.46    0.46</time>
   <time name="total">   22.92   22.93</time>
   <dipole>
    <v name="dipole">      0.00000000       0.00000000       0.72078757 </v>
    <i name="Tr[quadrupol]">  -5184.49887047 </i>
    <i name="Echarged">      0.00000000 </i>
    <i name="Edipol_quadrupol">      0.00000000 </i>
    <i name="Eion">      0.00000000 </i>
   </dipole>
   <energy>
    <i name="e_fr_energy">    -92.96772412 </i>
    <i name="e_wo_entrp">    -92.92895261 </i>
    <i name="e_0_energy">    -92.94833836 </i>
   </energy>
  </scstep>
  <scstep>
   <time name="diag">    3.60    3.60</time>
   <time name="diis">   16.18   16.43</time>
   <time name="orth">    0.46    0.46</time>
   <time name="total">   21.52   21.77</time>
   <dipole>
    <v name="dipole">      0.00000000       0.00000000       0.72108782 </v>
    <i name="Tr[quadrupol]">  -5184.62395956 </i>
    <i name="Echarged">      0.00000000 </i>
    <i name="Edipol_quadrupol">      0.00000000 </i>
    <i name="Eion">      0.00000000 </i>
   </dipole>
   <energy>
    <i name="e_fr_energy">    -92.95949787 </i>
    <i name="e_wo_entrp">    -92.92046802 </i>
    <i name="e_0_energy">    -92.93998294 </i>
   </energy>
  </scstep>
  <scstep>
   <time name="diag">    3.64    3.64</time>
   <time name="diis">   12.59   12.59</time>
   <time name="orth">    0.46    0.46</time>
   <time name="total">   17.96   17.97</time>
   <dipole>
    <v name="dipole">      0.00000000       0.00000000       0.71130367 </v>
    <i name="Tr[quadrupol]">  -5184.81901794 </i>
    <i name="Echarged">      0.00000000 </i>
    <i name="Edipol_quadrupol">      0.00000000 </i>
    <i name="Eion">      0.00000000 </i>
   </dipole>
   <energy>
    <i name="e_fr_energy">    -92.95803172 </i>
    <i name="e_wo_entrp">    -92.91903675 </i>
    <i name="e_0_energy">    -92.93853423 </i>
   </energy>
  </scstep>
  <scstep>
   <time name="diag">    3.59    3.60</time>
   <time name="diis">   14.94   14.95</time>
   <time name="orth">    0.46    0.46</time>
   <time name="total">   20.27   20.28</time>
   <dipole>
    <v name="dipole">      0.00000000       0.00000000       0.69821136 </v>
    <i name="Tr[quadrupol]">  -5184.96596615 </i>
    <i name="Echarged">      0.00000000 </i>
    <i name="Edipol_quadrupol">      0.00000000 </i>
    <i name="Eion">      0.00000000 </i>
   </dipole>
   <energy>
    <i name="e_fr_energy">    -92.95673959 </i>
    <i name="e_wo_entrp">    -92.91761889 </i>
    <i name="e_0_energy">    -92.93717924 </i>
   </energy>
  </scstep>
  <scstep>
   <time name="diag">    3.59    3.59</time>
   <time name="diis">   11.09   11.09</time>
   <time name="orth">    0.48    0.48</time>
   <time name="total">   16.44   16.44</time>
   <dipole>
    <v name="dipole">      0.00000000       0.00000000       0.68811689 </v>
    <i name="Tr[quadrupol]">  -5185.03703043 </i>
    <i name="Echarged">      0.00000000 </i>
    <i name="Edipol_quadrupol">      0.00000000 </i>
    <i name="Eion">      0.00000000 </i>
   </dipole>
   <energy>
    <i name="e_fr_energy">    -92.95661362 </i>
    <i name="e_wo_entrp">    -92.91753051 </i>
    <i name="e_0_energy">    -92.93707207 </i>
   </energy>
  </scstep>
  <scstep>
   <time name="diag">    3.59    3.59</time>
   <time name="diis">   10.77   10.78</time>
   <time name="orth">    0.46    0.46</time>
   <time name="total">   14.96   14.97</time>
   <dipole>
    <v name="dipole">      0.00000000       0.00000000       0.68169444 </v>
    <i name="Tr[quadrupol]">  -5185.08934481 </i>
    <i name="Echarged">      0.00000000 </i>
    <i name="Edipol_quadrupol">      0.00000000 </i>
    <i name="Eion">      0.00000000 </i>
   </dipole>
   <energy>
    <i name="alphaZ">    734.16020250 </i>
    <i name="ewald"> 106635.25228798 </i>
    <i name="hartreedc">-144760.89700861 </i>
    <i name="XCdc">   -378.92702677 </i>
    <i name="pawpsdc">  40016.56150529 </i>
    <i name="pawaedc"> -38437.54657348 </i>
    <i name="eentropy">     -0.03907356 </i>
    <i name="bandstr">  -1652.54138874 </i>
    <i name="atom">  37751.02038712 </i>
    <i name="e_fr_energy">    -92.95668828 </i>
    <i name="e_wo_entrp">    -92.91761472 </i>
    <i name="e_0_energy">    -92.93715150 </i>
   </energy>
  </scstep>
  <structure>
   <crystal>
    <varray name="basis" >
     <v>       8.64225908       0.00000000       0.00000000 </v>
     <v>       0.00000000       8.64225908       0.00000000 </v>
     <v>       0.00000000       0.00000000      22.11100000 </v>
    </varray>
    <i name="volume">   1651.44056326 </i>
    <varray name="rec_basis" >
     <v>       0.11571049       0.00000000       0.00000000 </v>
     <v>       0.00000000       0.11571049       0.00000000 </v>
     <v>       0.00000000       0.00000000       0.04522636 </v>
    </varray>
   </crystal>
   <varray name="positions" >
    <v>       0.17004009       0.00493363       0.40185962 </v>
    <v>       0.00178888       0.00005786       0.28178907 </v>
    <v>       0.33152166       0.00006118       0.28195682 </v>
    <v>       0.66666236      -0.00000476       0.27854278 </v>
    <v>      -0.00005094       0.33341103       0.27883956 </v>
    <v>       0.33337357       0.33338346       0.27885497 </v>
    <v>       0.66667278       0.33335918       0.27861171 </v>
    <v>      -0.00006846       0.66655885       0.27879667 </v>
    <v>       0.33339211       0.66658375       0.27880971 </v>
    <v>       0.66667245       0.66664695       0.27861548 </v>
    <v>       0.16667849       0.16644951       0.18556890 </v>
    <v>       0.49942935       0.16625050       0.18585238 </v>
    <v>       0.83388966       0.16628073       0.18585003 </v>
    <v>       0.16665831       0.49998107       0.18584313 </v>
    <v>       0.49988282       0.49998659       0.18575167 </v>
    <v>       0.83345886       0.49998719       0.18574277 </v>
    <v>       0.16667899       0.83357076       0.18558146 </v>
    <v>       0.49942171       0.83376606       0.18585823 </v>
    <v>       0.83389667       0.83373506       0.18585540 </v>
    <v>       0.00000000       0.00000000       0.09212609 </v>
    <v>       0.33333333       0.00000000       0.09212609 </v>
    <v>       0.66666667       0.00000000       0.09212609 </v>
    <v>       0.00000000       0.33333333       0.09212609 </v>
    <v>       0.33333333       0.33333333       0.09212609 </v>
    <v>       0.66666667       0.33333333       0.09212609 </v>
    <v>       0.00000000       0.66666667       0.09212609 </v>
    <v>       0.33333333       0.66666667       0.09212609 </v>
    <v>       0.66666667       0.66666667       0.09212609 </v>
    <v>       0.16666667       0.16666667       0.00000000 </v>
    <v>       0.50000000       0.16666667       0.00000000 </v>
    <v>       0.83333333       0.16666667       0.00000000 </v>
    <v>       0.16666667       0.50000000       0.00000000 </v>
    <v>       0.50000000       0.50000000       0.00000000 </v>
    <v>       0.83333333       0.50000000       0.00000000 </v>
    <v>       0.16666667       0.83333333       0.00000000 </v>
    <v>       0.50000000       0.83333333       0.00000000 </v>
    <v>       0.83333333       0.83333333       0.00000000 </v>
   </varray>
  </structure>
  <varray name="forces" >
   <v>       0.00505499      -0.00653001      -1.40272432 </v>
   <v>       0.05633435       0.00269852       0.43281735 </v>
   <v>      -0.05892624       0.00276267       0.45967327 </v>
   <v>       0.00004312      -0.00005714      -0.02713416 </v>
   <v>      -0.00502606       0.00586948       0.00505881 </v>
   <v>       0.00436868       0.00528182       0.00624021 </v>
   <v>      -0.00003514      -0.00514276      -0.01028223 </v>
   <v>      -0.00506968      -0.00584757       0.00064107 </v>
   <v>       0.00468352      -0.00539875       0.00123743 </v>
   <v>      -0.00003743       0.00526511      -0.00981244 </v>
   <v>       0.00175766      -0.05517042       0.06295012 </v>
   <v>      -0.05885785      -0.04935041       0.07125736 </v>
   <v>       0.05685046      -0.04700044       0.06849352 </v>
   <v>       0.00009120      -0.00148749       0.02428613 </v>
   <v>      -0.00328653      -0.00079336       0.00647164 </v>
   <v>       0.00292742      -0.00063161       0.00346642 </v>
   <v>       0.00178119       0.05692682       0.06454133 </v>
   <v>      -0.05917705       0.05051319       0.07188860 </v>
   <v>       0.05708303       0.04807844       0.06900219 </v>
   <v>       0.00459880      -0.00003067       0.04855665 </v>
   <v>      -0.00380292      -0.00001484       0.04921685 </v>
   <v>      -0.00088191       0.00003798       0.06710149 </v>
   <v>       0.00360756       0.00066125       0.05810208 </v>
   <v>      -0.00307849      -0.00005999       0.05908607 </v>
   <v>      -0.00064141      -0.03337071       0.08867980 </v>
   <v>       0.00434346      -0.00062664       0.05909500 </v>
   <v>      -0.00376851       0.00007642       0.06006882 </v>
   <v>      -0.00068820       0.03337034       0.09031207 </v>
   <v>       0.00033481      -0.00383776      -0.05118412 </v>
   <v>      -0.00728052      -0.01095273      -0.05614541 </v>
   <v>       0.00683834      -0.01070259      -0.05623460 </v>
   <v>       0.00016245      -0.00025437      -0.06110593 </v>
   <v>      -0.00953408      -0.00033811      -0.04544302 </v>
   <v>       0.00933606      -0.00033911      -0.04484687 </v>
   <v>       0.00034494       0.00408606      -0.05145162 </v>
   <v>      -0.00743770       0.01127893      -0.05590355 </v>
   <v>       0.00698767       0.01103046      -0.05597604 </v>
  </varray>
  <varray name="stress" >
   <v>     -13.81345337       0.00004234       0.01601793 </v>
   <v>       0.00004236     -13.33365066      -0.01929385 </v>
   <v>       0.01601793      -0.01929383      -5.84253758 </v>
  </varray>
  <energy>
   <i name="e_fr_energy">   -105.61578775 </i>
   <i name="e_wo_entrp">   -105.59625097 </i>
   <i name="e_0_energy">     -0.03907356 </i>
  </energy>
  <time name="totalsc">  215.12  215.48</time>
 </calculation>
 <calculation>
  <scstep>
   <time name="dav">   26.17   26.20</time>
   <time name="total">   27.61   27.65</time>
   <dipole>
    <v name="dipole">      0.00000000       0.00000000       0.67375039 </v>
    <i name="Tr[quadrupol]">  -5181.64187057 </i>
    <i name="Echarged">      0.00000000 </i>
    <i name="Edipol_quadrupol">      0.00000000 </i>
    <i name="Eion">      0.00000000 </i>
   </dipole>
   <energy>
    <i name="alphaZ">    733.56456320 </i>
    <i name="ewald"> 106630.36939919 </i>
    <i name="hartreedc">-144757.08670404 </i>
    <i name="XCdc">   -378.85306518 </i>
    <i name="pawpsdc">  40016.91204149 </i>
    <i name="pawaedc"> -38437.89229956 </i>
    <i name="eentropy">     -0.04143205 </i>
    <i name="bandstr">  -1650.91978082 </i>
    <i name="atom">  37751.02038712 </i>
    <i name="e_fr_energy">    -92.92689065 </i>
    <i name="e_wo_entrp">    -92.88545860 </i>
    <i name="e_0_energy">    -92.90617463 </i>
   </energy>
  </scstep>
  <scstep>
   <time name="diag">    3.59    3.59</time>
   <time name="diis">   17.36   17.38</time>
   <time name="orth">    0.46    0.46</time>
   <time name="total">   22.69   22.71</time>
   <dipole>
    <v name="dipole">      0.00000000       0.00000000       0.57595525 </v>
    <i name="Tr[quadrupol]">  -5181.78635495 </i>
    <i name="Echarged">      0.00000000 </i>
    <i name="Edipol_quadrupol">      0.00000000 </i>
    <i name="Eion">      0.00000000 </i>
   </dipole>
   <energy>
    <i name="e_fr_energy">    -93.29507761 </i>
    <i name="e_wo_entrp">    -93.25597922 </i>
    <i name="e_0_energy">    -93.27552841 </i>
   </energy>
  </scstep>
  <scstep>
   <time name="diag">    3.59    3.59</time>
   <time name="diis">   17.76   17.81</time>
   <time name="orth">    0.46    0.46</time>
   <time name="total">   23.09   23.14</time>
   <dipole>
    <v name="dipole">      0.00000000       0.00000000       0.66252452 </v>
    <i name="Tr[quadrupol]">  -5182.26754829 </i>
    <i name="Echarged">      0.00000000 </i>
    <i name="Edipol_quadrupol">      0.00000000 </i>
    <i name="Eion">      0.00000000 </i>
   </dipole>
   <energy>
    <i name="e_fr_energy">    -93.27781127 </i>
    <i name="e_wo_entrp">    -93.23741762 </i>
    <i name="e_0_energy">    -93.25761445 </i>
   </energy>
  </scstep>
  <scstep>
   <time name="diag">    3.73    3.73</time>
   <time name="diis">   17.66   17.67</time>
   <time name="orth">    0.46    0.46</time>
   <time name="total">   23.13   23.14</time>
   <dipole>
    <v name="dipole">      0.00000000       0.00000000       0.59522366 </v>
    <i name="Tr[quadrupol]">  -5182.08592031 </i>
    <i name="Echarged">      0.00000000 </i>
    <i name="Edipol_quadrupol">      0.00000000 </i>
    <i name="Eion">      0.00000000 </i>
   </dipole>
   <energy>
    <i name="e_fr_energy">    -93.26683261 </i>
    <i name="e_wo_entrp">    -93.22708136 </i>
    <i name="e_0_energy">    -93.24695698 </i>
   </energy>
  </scstep>
  <scstep>
   <time name="diag">    3.60    3.60</time>
   <time name="diis">   16.28   16.28</time>
   <time name="orth">    0.65    0.66</time>
   <time name="total">   21.81   21.81</time>
   <dipole>
    <v name="dipole">      0.00000000       0.00000000       0.59161591 </v>
    <i name="Tr[quadrupol]">  -5182.25122900 </i>
    <i name="Echarged">      0.00000000 </i>
    <i name="Edipol_quadrupol">      0.00000000 </i>
    <i name="Eion">      0.00000000 </i>
   </dipole>
   <energy>
    <i name="e_fr_energy">    -93.25668526 </i>
    <i name="e_wo_entrp">    -93.21666003 </i>
    <i name="e_0_energy">    -93.23667265 </i>
   </energy>
  </scstep>
  <scstep>
   <time name="diag">    3.59    3.59</time>
   <time name="diis">   12.93   12.93</time>
   <time name="orth">    0.46    0.46</time>
   <time name="total">   18.34   18.34</time>
   <dipole>
    <v name="dipole">      0.00000000       0.00000000       0.58305402 </v>
    <i name="Tr[quadrupol]">  -5182.32913312 </i>
    <i name="Echarged">      0.00000000 </i>
    <i name="Edipol_quadrupol">      0.00000000 </i>
    <i name="Eion">      0.00000000 </i>
   </dipole>
   <energy>
    <i name="e_fr_energy">    -93.25568814 </i>
    <i name="e_wo_entrp">    -93.21568814 </i>
    <i name="e_0_energy">    -93.23568814 </i>
   </energy>
  </scstep>
  <scstep>
   <time name="diag">    3.63    3.63</time>
   <time name="diis">   14.79   14.79</time>
   <time name="orth">    0.46    0.46</time>
   <time name="total">   20.16   20.17</time>
   <dipole>
    <v name="dipole">      0.00000000       0.00000000       0.56928655 </v>
    <i name="Tr[quadrupol]">  -5182.48109956 </i>
    <i name="Echarged">      0.00000000 </i>
    <i name="Edipol_quadrupol">      0.00000000 </i>
    <i name="Eion">      0.00000000 </i>
   </dipole>
   <energy>
    <i name="e_fr_energy">    -93.25477551 </i>
    <i name="e_wo_entrp">    -93.21470926 </i>
    <i name="e_0_energy">    -93.23474238 </i>
   </energy>
  </scstep>
  <scstep>
   <time name="diag">    3.59    3.59</time>
   <time name="diis">   11.09   11.09</time>
   <time name="orth">    0.46    0.46</time>
   <time name="total">   16.43   16.43</time>
   <dipole>
    <v name="dipole">      0.00000000       0.00000000       0.55872372 </v>
    <i name="Tr[quadrupol]">  -5182.56005919 </i>
    <i name="Echarged">      0.00000000 </i>
    <i name="Edipol_quadrupol">      0.00000000 </i>
    <i name="Eion">      0.00000000 </i>
   </dipole>
   <energy>
    <i name="e_fr_energy">    -93.25467151 </i>
    <i name="e_wo_entrp">    -93.21462288 </i>
    <i name="e_0_energy">    -93.23464719 </i>
   </energy>
  </scstep>
  <scstep>
   <time name="diag">    3.81    3.82</time>
   <time name="diis">   10.71   10.71</time>
   <time name="orth">    0.46    0.46</time>
   <time name="total">   16.27   16.27</time>
   <dipole>
    <v name="dipole">      0.00000000       0.00000000       0.54970252 </v>
    <i name="Tr[quadrupol]">  -5182.62708687 </i>
    <i name="Echarged">      0.00000000 </i>
    <i name="Edipol_quadrupol">      0.00000000 </i>
    <i name="Eion">      0.00000000 </i>
   </dipole>
   <energy>
    <i name="e_fr_energy">    -93.25481361 </i>
    <i name="e_wo_entrp">    -93.21476266 </i>
    <i name="e_0_energy">    -93.23478814 </i>
   </energy>
  </scstep>
  <scstep>
   <time name="diag">    3.60    3.60</time>
   <time name="diis">   10.38   10.38</time>
   <time name="orth">    0.46    0.46</time>
   <time name="total">   15.73   15.73</time>
   <dipole>
    <v name="dipole">      0.00000000       0.00000000       0.54685187 </v>
    <i name="Tr[quadrupol]">  -5182.01060795 </i>
    <i name="Echarged">      0.00000000 </i>
    <i name="Edipol_quadrupol">      0.00000000 </i>
    <i name="Eion">      0.00000000 </i>
   </dipole>
   <energy>
    <i name="e_fr_energy">    -93.25497826 </i>
    <i name="e_wo_entrp">    -93.21490302 </i>
    <i name="e_0_energy">    -93.23494064 </i>
   </energy>
  </scstep>
  <scstep>
   <time name="diag">    3.82    3.82</time>
   <time name="diis">    8.98    8.98</time>
   <time name="orth">    0.46    0.46</time>
   <time name="total">   14.54   14.54</time>
   <dipole>
    <v name="dipole">      0.00000000       0.00000000       0.53865208 </v>
    <i name="Tr[quadrupol]">  -5181.71278458 </i>
    <i name="Echarged">      0.00000000 </i>
    <i name="Edipol_quadrupol">      0.00000000 </i>
    <i name="Eion">      0.00000000 </i>
   </dipole>
   <energy>
    <i name="e_fr_energy">    -93.25509113 </i>
    <i name="e_wo_entrp">    -93.21503750 </i>
    <i name="e_0_energy">    -93.23506432 </i>
   </energy>
  </scstep>
  <scstep>
   <time name="diag">    3.60    3.60</time>
   <time name="diis">    8.44    8.44</time>
   <time name="orth">    0.46    0.46</time>
   <time name="total">   13.78   13.79</time>
   <dipole>
    <v name="dipole">      0.00000000       0.00000000       0.53283396 </v>
    <i name="Tr[quadrupol]">  -5181.66196831 </i>
    <i name="Echarged">      0.00000000 </i>
    <i name="Edipol_quadrupol">      0.00000000 </i>
    <i name="Eion">      0.00000000 </i>
   </dipole>
   <energy>
    <i name="e_fr_energy">    -93.25521549 </i>
[...]
       <r>     6.5326     0.7004   241.9920 </r>
       <r>     6.6085     0.1006   241.9996 </r>
       <r>     6.6844     0.0052   242.0000 </r>
       <r>     6.7602     0.0001   242.0000 </r>
       <r>     6.8361     0.0000   242.0000 </r>
       <r>     6.9120     0.0000   242.0000 </r>
       <r>     6.9879     0.0000   242.0000 </r>
       <r>     7.0638     0.0000   242.0000 </r>
       <r>     7.1397     0.0000   242.0000 </r>
       <r>     7.2156     0.0000   242.0000 </r>
       <r>     7.2915     0.0000   242.0000 </r>
       <r>     7.3674     0.0000   242.0000 </r>
       <r>     7.4433     0.0000   242.0000 </r>
      </set>
      <set comment="spin 2">
       <r>   -15.3242     0.0000     0.0000 </r>
       <r>   -15.2483     0.0000     0.0000 </r>
       <r>   -15.1724     0.0000     0.0000 </r>
       <r>   -15.0965     0.0000     0.0000 </r>
       <r>   -15.0206     0.0000     0.0000 </r>
       <r>   -14.9447     0.0000     0.0000 </r>
       <r>   -14.8688     0.0000     0.0000 </r>
       <r>   -14.7929     0.0000     0.0000 </r>
       <r>   -14.7170     0.0000     0.0000 </r>
       <r>   -14.6411     0.0000     0.0000 </r>
       <r>   -14.5652     0.0006     0.0000 </r>
       <r>   -14.4894     0.0300     0.0023 </r>
       <r>   -14.4135     0.4895     0.0395 </r>
       <r>   -14.3376     2.7362     0.2471 </r>
       <r>   -14.2617     5.3300     0.6516 </r>
       <r>   -14.1858     3.6452     0.9283 </r>
       <r>   -14.1099     0.8714     0.9944 </r>
       <r>   -14.0340     0.0718     0.9998 </r>
       <r>   -13.9581     0.0020     1.0000 </r>
       <r>   -13.8822     0.0000     1.0000 </r>
       <r>   -13.8063     0.0000     1.0000 </r>
       <r>   -13.7304     0.0000     1.0000 </r>
       <r>   -13.6545     0.0000     1.0000 </r>
       <r>   -13.5787     0.0000     1.0000 </r>
       <r>   -13.5028     0.0000     1.0000 </r>
       <r>   -13.4269     0.0000     1.0000 </r>
       <r>   -13.3510     0.0000     1.0000 </r>
       <r>   -13.2751     0.0000     1.0000 </r>
       <r>   -13.1992     0.0000     1.0000 </r>
       <r>   -13.1233     0.0000     1.0000 </r>
       <r>   -13.0474     0.0000     1.0000 </r>
       <r>   -12.9715     0.0000     1.0000 </r>
       <r>   -12.8956     0.0000     1.0000 </r>
       <r>   -12.8197     0.0000     1.0000 </r>
       <r>   -12.7439     0.0000     1.0000 </r>
       <r>   -12.6680     0.0000     1.0000 </r>
       <r>   -12.5921     0.0000     1.0000 </r>
       <r>   -12.5162     0.0000     1.0000 </r>
       <r>   -12.4403     0.0000     1.0000 </r>
       <r>   -12.3644     0.0000     1.0000 </r>
       <r>   -12.2885     0.0000     1.0000 </r>
       <r>   -12.2126     0.0000     1.0000 </r>
       <r>   -12.1367     0.0000     1.0000 </r>
       <r>   -12.0608     0.0000     1.0000 </r>
       <r>   -11.9849     0.0000     1.0000 </r>
       <r>   -11.9090     0.0000     1.0000 </r>
       <r>   -11.8332     0.0000     1.0000 </r>
       <r>   -11.7573     0.0000     1.0000 </r>
       <r>   -11.6814     0.0000     1.0000 </r>
       <r>   -11.6055     0.0000     1.0000 </r>
       <r>   -11.5296     0.0000     1.0000 </r>
       <r>   -11.4537     0.0000     1.0000 </r>
       <r>   -11.3778     0.0000     1.0000 </r>
       <r>   -11.3019     0.0000     1.0000 </r>
       <r>   -11.2260     0.0000     1.0000 </r>
       <r>   -11.1501     0.0000     1.0000 </r>
       <r>   -11.0742     0.0000     1.0000 </r>
       <r>   -10.9983     0.0000     1.0000 </r>
       <r>   -10.9225     0.0000     1.0000 </r>
       <r>   -10.8466     0.0000     1.0000 </r>
       <r>   -10.7707     0.0000     1.0000 </r>
       <r>   -10.6948     0.0000     1.0000 </r>
       <r>   -10.6189     0.0000     1.0000 </r>
       <r>   -10.5430     0.0000     1.0000 </r>
       <r>   -10.4671     0.0000     1.0000 </r>
       <r>   -10.3912     0.0000     1.0000 </r>
       <r>   -10.3153     0.0000     1.0000 </r>
       <r>   -10.2394     0.0000     1.0000 </r>
       <r>   -10.1635     0.0000     1.0000 </r>
       <r>   -10.0877     0.0000     1.0000 </r>
       <r>   -10.0118     0.0000     1.0000 </r>
       <r>    -9.9359     0.0000     1.0000 </r>
       <r>    -9.8600     0.0000     1.0000 </r>
       <r>    -9.7841     0.0000     1.0000 </r>
       <r>    -9.7082     0.0000     1.0000 </r>
       <r>    -9.6323     0.0000     1.0000 </r>
       <r>    -9.5564     0.0000     1.0000 </r>
       <r>    -9.4805     0.0000     1.0000 </r>
       <r>    -9.4046     0.0000     1.0000 </r>
       <r>    -9.3287     0.0000     1.0000 </r>
       <r>    -9.2528     0.0000     1.0000 </r>
       <r>    -9.1770     0.0000     1.0000 </r>
       <r>    -9.1011     0.0000     1.0000 </r>
       <r>    -9.0252     0.0000     1.0000 </r>
       <r>    -8.9493     0.0000     1.0000 </r>
       <r>    -8.8734     0.0000     1.0000 </r>
       <r>    -8.7975     0.0000     1.0000 </r>
       <r>    -8.7216     0.0000     1.0000 </r>
       <r>    -8.6457     0.0000     1.0000 </r>
       <r>    -8.5698     0.0000     1.0000 </r>
       <r>    -8.4939     0.0000     1.0000 </r>
       <r>    -8.4180     0.0000     1.0000 </r>
       <r>    -8.3421     0.0000     1.0000 </r>
       <r>    -8.2663     0.0000     1.0000 </r>
       <r>    -8.1904     0.0000     1.0000 </r>
       <r>    -8.1145     0.0000     1.0000 </r>
       <r>    -8.0386     0.0000     1.0000 </r>
       <r>    -7.9627     0.0000     1.0000 </r>
       <r>    -7.8868     0.0000     1.0000 </r>
       <r>    -7.8109     0.0000     1.0000 </r>
       <r>    -7.7350     0.0000     1.0000 </r>
       <r>    -7.6591     0.0000     1.0000 </r>
       <r>    -7.5832     0.0000     1.0000 </r>
       <r>    -7.5073     0.0000     1.0000 </r>
       <r>    -7.4315     0.0000     1.0000 </r>
       <r>    -7.3556     0.0000     1.0000 </r>
       <r>    -7.2797     0.0000     1.0000 </r>
       <r>    -7.2038     0.0000     1.0000 </r>
       <r>    -7.1279     0.0000     1.0000 </r>
       <r>    -7.0520     0.0006     1.0000 </r>
       <r>    -6.9761     0.0164     1.0013 </r>
       <r>    -6.9002     0.1574     1.0132 </r>
       <r>    -6.8243     0.5832     1.0575 </r>
       <r>    -6.7484     1.1209     1.1426 </r>
       <r>    -6.6725     1.5043     1.2567 </r>
       <r>    -6.5966     1.4179     1.3643 </r>
       <r>    -6.5208     1.4013     1.4707 </r>
       <r>    -6.4449     1.7079     1.6003 </r>
       <r>    -6.3690     1.7840     1.7357 </r>
       <r>    -6.2931     1.5222     1.8512 </r>
       <r>    -6.2172     1.3900     1.9567 </r>
       <r>    -6.1413     2.0621     2.1132 </r>
       <r>    -6.0654     2.3430     2.2910 </r>
       <r>    -5.9895     1.8307     2.4299 </r>
       <r>    -5.9136     2.2477     2.6005 </r>
       <r>    -5.8377     4.9856     2.9789 </r>
       <r>    -5.7618    10.5325     3.7782 </r>
       <r>    -5.6859    20.9010     5.3644 </r>
       <r>    -5.6101    32.7695     7.8514 </r>
       <r>    -5.5342    39.3995    10.8414 </r>
       <r>    -5.4583    41.9978    14.0287 </r>
       <r>    -5.3824    43.9327    17.3628 </r>
       <r>    -5.3065    43.9559    20.6987 </r>
       <r>    -5.2306    45.0382    24.1167 </r>
       <r>    -5.1547    45.0603    27.5364 </r>
       <r>    -5.0788    44.6325    30.9236 </r>
       <r>    -5.0029    49.0017    34.6425 </r>
       <r>    -4.9270    51.8562    38.5779 </r>
       <r>    -4.8511    50.9792    42.4468 </r>
       <r>    -4.7753    53.9487    46.5410 </r>
       <r>    -4.6994    52.4998    50.5253 </r>
       <r>    -4.6235    45.0044    53.9408 </r>
       <r>    -4.5476    40.9004    57.0447 </r>
       <r>    -4.4717    43.7323    60.3637 </r>
       <r>    -4.3958    47.7141    63.9848 </r>
       <r>    -4.3199    49.6717    67.7544 </r>
       <r>    -4.2440    52.7833    71.7602 </r>
       <r>    -4.1681    60.7445    76.3702 </r>
       <r>    -4.0922    67.6590    81.5049 </r>
       <r>    -4.0163    64.2741    86.3828 </r>
       <r>    -3.9404    60.4689    90.9719 </r>
       <r>    -3.8646    60.2576    95.5449 </r>
       <r>    -3.7887    58.5324    99.9870 </r>
       <r>    -3.7128    54.7620   104.1430 </r>
       <r>    -3.6369    55.5030   108.3552 </r>
       <r>    -3.5610    60.6106   112.9550 </r>
       <r>    -3.4851    63.5781   117.7800 </r>
       <r>    -3.4092    62.6069   122.5314 </r>
       <r>    -3.3333    57.7458   126.9138 </r>
       <r>    -3.2574    56.4321   131.1965 </r>
       <r>    -3.1815    62.8315   135.9649 </r>
       <r>    -3.1056    65.6240   140.9452 </r>
       <r>    -3.0297    61.7995   145.6352 </r>
       <r>    -2.9539    61.5174   150.3039 </r>
       <r>    -2.8780    68.9750   155.5385 </r>
       <r>    -2.8021    76.4451   161.3400 </r>
       <r>    -2.7262    75.7696   167.0903 </r>
       <r>    -2.6503    69.8857   172.3940 </r>
       <r>    -2.5744    65.9167   177.3965 </r>
       <r>    -2.4985    55.8865   181.6378 </r>
       <r>    -2.4226    35.9347   184.3650 </r>
       <r>    -2.3467    18.7194   185.7856 </r>
       <r>    -2.2708    11.2965   186.6429 </r>
       <r>    -2.1949     9.6607   187.3761 </r>
       <r>    -2.1191     9.2946   188.0814 </r>
       <r>    -2.0432     8.3685   188.7165 </r>
       <r>    -1.9673     7.7596   189.3054 </r>
       <r>    -1.8914     8.8307   189.9756 </r>
       <r>    -1.8155     9.5083   190.6972 </r>
       <r>    -1.7396     7.7344   191.2842 </r>
       <r>    -1.6637     4.5576   191.6301 </r>
       <r>    -1.5878     3.7873   191.9175 </r>
       <r>    -1.5119     5.3843   192.3261 </r>
       <r>    -1.4360     6.5188   192.8208 </r>
       <r>    -1.3601     6.1660   193.2888 </r>
       <r>    -1.2842     5.1724   193.6813 </r>
       <r>    -1.2084     4.8227   194.0473 </r>
       <r>    -1.1325     5.0459   194.4303 </r>
       <r>    -1.0566     3.9469   194.7298 </r>
       <r>    -0.9807     2.9900   194.9567 </r>
       <r>    -0.9048     3.6181   195.2313 </r>
       <r>    -0.8289     4.4763   195.5710 </r>
       <r>    -0.7530     5.0877   195.9571 </r>
       <r>    -0.6771     4.7186   196.3152 </r>
       <r>    -0.6012     3.7160   196.5972 </r>
       <r>    -0.5253     4.4361   196.9339 </r>
       <r>    -0.4494     5.9010   197.3817 </r>
       <r>    -0.3735     5.2623   197.7811 </r>
       <r>    -0.2977     3.6364   198.0571 </r>
       <r>    -0.2218     3.3074   198.3081 </r>
       <r>    -0.1459     5.0319   198.6899 </r>
       <r>    -0.0700     5.9336   199.1402 </r>
       <r>     0.0059     5.2795   199.5409 </r>
       <r>     0.0818     4.8900   199.9120 </r>
       <r>     0.1577     4.2036   200.2310 </r>
       <r>     0.2336     3.6731   200.5098 </r>
       <r>     0.3095     4.3398   200.8391 </r>
       <r>     0.3854     5.1514   201.2301 </r>
       <r>     0.4613     4.7651   201.5917 </r>
       <r>     0.5371     4.3221   201.9197 </r>
       <r>     0.6130     4.8346   202.2866 </r>
       <r>     0.6889     5.1750   202.6794 </r>
       <r>     0.7648     6.3095   203.1582 </r>
       <r>     0.8407     6.8300   203.6766 </r>
       <r>     0.9166     6.5131   204.1708 </r>
       <r>     0.9925     6.0481   204.6298 </r>
       <r>     1.0684     5.7931   205.0695 </r>
       <r>     1.1443     5.9522   205.5212 </r>
       <r>     1.2202     5.8284   205.9635 </r>
       <r>     1.2961     5.8644   206.4086 </r>
       <r>     1.3720     5.7450   206.8446 </r>
       <r>     1.4478     5.2636   207.2441 </r>
       <r>     1.5237     5.5157   207.6626 </r>
       <r>     1.5996     5.1125   208.0506 </r>
       <r>     1.6755     4.4830   208.3909 </r>
       <r>     1.7514     4.9975   208.7701 </r>
       <r>     1.8273     4.9383   209.1449 </r>
       <r>     1.9032     5.3851   209.5536 </r>
       <r>     1.9791     6.2002   210.0241 </r>
       <r>     2.0550     6.1822   210.4933 </r>
       <r>     2.1309     6.0594   210.9532 </r>
       <r>     2.2068     6.2827   211.4300 </r>
       <r>     2.2827     6.2216   211.9021 </r>
       <r>     2.3585     5.8273   212.3444 </r>
       <r>     2.4344     4.8899   212.7155 </r>
       <r>     2.5103     4.2398   213.0372 </r>
       <r>     2.5862     4.6575   213.3907 </r>
       <r>     2.6621     6.6525   213.8956 </r>
       <r>     2.7380     7.4090   214.4578 </r>
       <r>     2.8139     5.8208   214.8996 </r>
       <r>     2.8898     5.1061   215.2871 </r>
       <r>     2.9657     5.4523   215.7009 </r>
       <r>     3.0416     6.1566   216.1681 </r>
       <r>     3.1175     6.5659   216.6664 </r>
       <r>     3.1934     6.0475   217.1254 </r>
       <r>     3.2692     4.9321   217.4997 </r>
       <r>     3.3451     4.7776   217.8623 </r>
       <r>     3.4210     6.1562   218.3295 </r>
       <r>     3.4969     7.3390   218.8864 </r>
       <r>     3.5728     6.5286   219.3819 </r>
       <r>     3.6487     6.8203   219.8995 </r>
       <r>     3.7246     8.6206   220.5537 </r>
       <r>     3.8005     9.3975   221.2669 </r>
       <r>     3.8764     9.1187   221.9589 </r>
       <r>     3.9523     7.7446   222.5467 </r>
       <r>     4.0282     6.5705   223.0453 </r>
       <r>     4.1040     6.6921   223.5532 </r>
       <r>     4.1799     6.9231   224.0786 </r>
       <r>     4.2558     7.0774   224.6157 </r>
       <r>     4.3317     6.0940   225.0782 </r>
       <r>     4.4076     5.2493   225.4766 </r>
       <r>     4.4835     6.5415   225.9730 </r>
       <r>     4.5594     8.1239   226.5896 </r>
       <r>     4.6353     8.3721   227.2249 </r>
       <r>     4.7112     8.1459   227.8431 </r>
       <r>     4.7871     7.7451   228.4309 </r>
       <r>     4.8630     7.4339   228.9951 </r>
       <r>     4.9389     8.0683   229.6074 </r>
       <r>     5.0147     8.7975   230.2751 </r>
       <r>     5.0906     8.3076   230.9055 </r>
       <r>     5.1665     7.1397   231.4474 </r>
       <r>     5.2424     7.7315   232.0341 </r>
       <r>     5.3183     8.6024   232.6870 </r>
       <r>     5.3942     8.2360   233.3120 </r>
       <r>     5.4701     6.7525   233.8245 </r>
       <r>     5.5460     5.6930   234.2565 </r>
       <r>     5.6219     7.2251   234.8049 </r>
       <r>     5.6978     9.0345   235.4905 </r>
       <r>     5.7737    10.8579   236.3145 </r>
       <r>     5.8496    12.1817   237.2390 </r>
       <r>     5.9254    11.6773   238.1252 </r>
       <r>     6.0013     9.5712   238.8516 </r>
       <r>     6.0772     8.9447   239.5304 </r>
       <r>     6.1531     9.2982   240.2361 </r>
       <r>     6.2290     9.1881   240.9334 </r>
       <r>     6.3049     7.2128   241.4808 </r>
       <r>     6.3808     4.0396   241.7873 </r>
       <r>     6.4567     2.0332   241.9416 </r>
       <r>     6.5326     0.6717   241.9926 </r>
       <r>     6.6085     0.0928   241.9996 </r>
       <r>     6.6844     0.0046   242.0000 </r>
       <r>     6.7602     0.0001   242.0000 </r>
       <r>     6.8361     0.0000   242.0000 </r>
       <r>     6.9120     0.0000   242.0000 </r>
       <r>     6.9879     0.0000   242.0000 </r>
       <r>     7.0638     0.0000   242.0000 </r>
       <r>     7.1397     0.0000   242.0000 </r>
       <r>     7.2156     0.0000   242.0000 </r>
       <r>     7.2915     0.0000   242.0000 </r>
       <r>     7.3674     0.0000   242.0000 </r>
       <r>     7.4433     0.0000   242.0000 </r>
      </set>
     </set>
    </array>
   </total>
  </dos>
 </calculation>
 <structure name="finalpos" >
  <crystal>
   <varray name="basis" >
    <v>       8.64225908       0.00000000       0.00000000 </v>
    <v>       0.00000000       8.64225908       0.00000000 </v>
    <v>       0.00000000       0.00000000      22.11100000 </v>
   </varray>
   <i name="volume">   1651.44056326 </i>
   <varray name="rec_basis" >
    <v>       0.11571049       0.00000000       0.00000000 </v>
    <v>       0.00000000       0.11571049       0.00000000 </v>
    <v>       0.00000000       0.00000000       0.04522636 </v>
   </varray>
  </crystal>
  <varray name="positions" >
   <v>       0.16727611       0.00627774       0.37273879 </v>
   <v>      -0.00838107      -0.00037622       0.28118005 </v>
   <v>       0.34244960      -0.00040001       0.28116107 </v>
   <v>       0.66708643       0.00003719       0.27738726 </v>
   <v>      -0.00085695       0.33503995       0.27806977 </v>
   <v>       0.33423191       0.33503970       0.27805308 </v>
   <v>       0.66669510       0.33313521       0.27811812 </v>
   <v>      -0.00079793       0.66462745       0.27798320 </v>
   <v>       0.33419048       0.66464213       0.27797000 </v>
   <v>       0.66669863       0.66695475       0.27814548 </v>
   <v>       0.16677758       0.16516262       0.18604229 </v>
   <v>       0.49825739       0.16575190       0.18574713 </v>
   <v>       0.83532791       0.16575080       0.18576823 </v>
   <v>       0.16662389       0.49984158       0.18554883 </v>
   <v>       0.50042201       0.49995155       0.18516053 </v>
   <v>       0.83286358       0.49995567       0.18515117 </v>
   <v>       0.16678086       0.83478090       0.18605961 </v>
   <v>       0.49823184       0.83428472       0.18577210 </v>
   <v>       0.83536064       0.83429323       0.18579493 </v>
   <v>       0.00000000       0.00000000       0.09212609 </v>
   <v>       0.33333333       0.00000000       0.09212609 </v>
   <v>       0.66666667       0.00000000       0.09212609 </v>
   <v>       0.00000000       0.33333333       0.09212609 </v>
   <v>       0.33333333       0.33333333       0.09212609 </v>
   <v>       0.66666667       0.33333333       0.09212609 </v>
   <v>       0.00000000       0.66666667       0.09212609 </v>
   <v>       0.33333333       0.66666667       0.09212609 </v>
   <v>       0.66666667       0.66666667       0.09212609 </v>
   <v>       0.16666667       0.16666667       0.00000000 </v>
   <v>       0.50000000       0.16666667       0.00000000 </v>
   <v>       0.83333333       0.16666667       0.00000000 </v>
   <v>       0.16666667       0.50000000       0.00000000 </v>
   <v>       0.50000000       0.50000000       0.00000000 </v>
   <v>       0.83333333       0.50000000       0.00000000 </v>
   <v>       0.16666667       0.83333333       0.00000000 </v>
   <v>       0.50000000       0.83333333       0.00000000 </v>
   <v>       0.83333333       0.83333333       0.00000000 </v>
  </varray>
  <varray name="selective"  type="logical" >
   <v type="logical" >  T  T  T </v>
   <v type="logical" >  T  T  T </v>
   <v type="logical" >  T  T  T </v>
   <v type="logical" >  T  T  T </v>
   <v type="logical" >  T  T  T </v>
   <v type="logical" >  T  T  T </v>
   <v type="logical" >  T  T  T </v>
   <v type="logical" >  T  T  T </v>
   <v type="logical" >  T  T  T </v>
   <v type="logical" >  T  T  T </v>
   <v type="logical" >  T  T  T </v>
   <v type="logical" >  T  T  T </v>
   <v type="logical" >  T  T  T </v>
   <v type="logical" >  T  T  T </v>
   <v type="logical" >  T  T  T </v>
   <v type="logical" >  T  T  T </v>
   <v type="logical" >  T  T  T </v>
   <v type="logical" >  T  T  T </v>
   <v type="logical" >  T  T  T </v>
   <v type="logical" >  F  F  F </v>
   <v type="logical" >  F  F  F </v>
   <v type="logical" >  F  F  F </v>
   <v type="logical" >  F  F  F </v>
   <v type="logical" >  F  F  F </v>
   <v type="logical" >  F  F  F </v>
   <v type="logical" >  F  F  F </v>
   <v type="logical" >  F  F  F </v>
   <v type="logical" >  F  F  F </v>
   <v type="logical" >  F  F  F </v>
   <v type="logical" >  F  F  F </v>
   <v type="logical" >  F  F  F </v>
   <v type="logical" >  F  F  F </v>
   <v type="logical" >  F  F  F </v>
   <v type="logical" >  F  F  F </v>
   <v type="logical" >  F  F  F </v>
   <v type="logical" >  F  F  F </v>
   <v type="logical" >  F  F  F </v>
  </varray>
  <nose>
   <v>      -3.00000000       0.00000000       0.00010000       0.00010000 </v>
  </nose>
 </structure>
</modeling>
