CatImpurities                           
           1
     8.642259    0.000000    0.000000
     0.000000    8.642259    0.000000
     0.000000    0.000000   22.111000
   Cl   Ag
   1  36
Direct configuration=     1
   0.17000095  0.00499841  0.40966906
   0.00004430  0.00000143  0.27878308
   0.33328850  0.00000151  0.27878719
   0.66666656 -0.00000012  0.27870314
  -0.00000138  0.33333542  0.27871051
   0.33333446  0.33333475  0.27871090
   0.66666682  0.33333411  0.27870491
  -0.00000182  0.66666382  0.27870944
   0.33333492  0.66666443  0.27870977
   0.66666681  0.66666605  0.27870501
   0.16666694  0.16666174  0.18558221
   0.49998611  0.16665662  0.18558942
   0.83334688  0.16665735  0.18558937
   0.16666645  0.49999953  0.18558939
   0.49999706  0.49999967  0.18558714
   0.83333649  0.49999968  0.18558692
   0.16666696  0.83333875  0.18558253
   0.49998592  0.83334379  0.18558956
   0.83334706  0.83334304  0.18558951
   0.00000000  0.00000000  0.09212609
   0.33333333  0.00000000  0.09212609
   0.66666667  0.00000000  0.09212609
   0.00000000  0.33333333  0.09212609
   0.33333333  0.33333333  0.09212609
   0.66666667  0.33333333  0.09212609
   0.00000000  0.66666667  0.09212609
   0.33333333  0.66666667  0.09212609
   0.66666667  0.66666667  0.09212609
   0.16666667  0.16666667  0.00000000
   0.50000000  0.16666667  0.00000000
   0.83333333  0.16666667  0.00000000
   0.16666667  0.50000000  0.00000000
   0.50000000  0.50000000  0.00000000
   0.83333333  0.50000000  0.00000000
   0.16666667  0.83333333  0.00000000
   0.50000000  0.83333333  0.00000000
   0.83333333  0.83333333  0.00000000
Direct configuration=     2
   0.17004009  0.00493363  0.40185962
   0.00178888  0.00005786  0.28178907
   0.33152166  0.00006118  0.28195682
   0.66666236 -0.00000476  0.27854278
  -0.00005094  0.33341103  0.27883956
   0.33337357  0.33338346  0.27885497
   0.66667278  0.33335918  0.27861171
  -0.00006846  0.66655885  0.27879667
   0.33339211  0.66658375  0.27880971
   0.66667245  0.66664695  0.27861548
   0.16667849  0.16644951  0.18556890
   0.49942935  0.16625050  0.18585238
   0.83388966  0.16628073  0.18585003
   0.16665831  0.49998107  0.18584313
   0.49988282  0.49998659  0.18575167
   0.83345886  0.49998719  0.18574277
   0.16667899  0.83357076  0.18558146
   0.49942171  0.83376606  0.18585823
   0.83389667  0.83373506  0.18585540
   0.00000000  0.00000000  0.09212609
   0.33333333  0.00000000  0.09212609
   0.66666667  0.00000000  0.09212609
   0.00000000  0.33333333  0.09212609
   0.33333333  0.33333333  0.09212609
   0.66666667  0.33333333  0.09212609
   0.00000000  0.66666667  0.09212609
   0.33333333  0.66666667  0.09212609
   0.66666667  0.66666667  0.09212609
   0.16666667  0.16666667  0.00000000
   0.50000000  0.16666667  0.00000000
   0.83333333  0.16666667  0.00000000
   0.16666667  0.50000000  0.00000000
   0.50000000  0.50000000  0.00000000
   0.83333333  0.50000000  0.00000000
   0.16666667  0.83333333  0.00000000
   0.50000000  0.83333333  0.00000000
   0.83333333  0.83333333  0.00000000
Direct configuration=     3
   0.17011511  0.00483673  0.39372363
   0.00262486  0.00009790  0.28429947
   0.33064723  0.00010218  0.28462299
   0.66666300 -0.00000560  0.27838539
  -0.00012552  0.33349813  0.27886891
   0.33343840  0.33346184  0.27889117
   0.66667226  0.33328287  0.27855208
  -0.00014369  0.66647207  0.27880039
   0.33346161  0.66650363  0.27881689
   0.66667189  0.66672508  0.27855857
   0.16670457  0.16563081  0.18593402
   0.49855592  0.16551817  0.18626568
   0.83473330  0.16558327  0.18624731
   0.16665966  0.49995899  0.18598400
   0.49983405  0.49997482  0.18578921
   0.83350230  0.49997781  0.18576287
   0.16670542  0.83441553  0.18595581
   0.49854356  0.83451565  0.18627520
   0.83474375  0.83444852  0.18625562
   0.00000000  0.00000000  0.09212609
   0.33333333  0.00000000  0.09212609
   0.66666667  0.00000000  0.09212609
   0.00000000  0.33333333  0.09212609
   0.33333333  0.33333333  0.09212609
   0.66666667  0.33333333  0.09212609
   0.00000000  0.66666667  0.09212609
   0.33333333  0.66666667  0.09212609
   0.66666667  0.66666667  0.09212609
   0.16666667  0.16666667  0.00000000
   0.50000000  0.16666667  0.00000000
   0.83333333  0.16666667  0.00000000
   0.16666667  0.50000000  0.00000000
   0.50000000  0.50000000  0.00000000
   0.83333333  0.50000000  0.00000000
   0.16666667  0.83333333  0.00000000
   0.50000000  0.83333333  0.00000000
   0.83333333  0.83333333  0.00000000
Direct configuration=     4
   0.17008490  0.00471475  0.38532589
   0.00186289  0.00010870  0.28636194
   0.33145794  0.00011215  0.28676047
   0.66666789 -0.00000445  0.27831374
  -0.00028921  0.33384487  0.27880750
   0.33359144  0.33381470  0.27883366
   0.66667309  0.33319177  0.27849351
  -0.00029045  0.66615908  0.27872735
   0.33359972  0.66618481  0.27874809
   0.66667329  0.66681599  0.27850161
   0.16672594  0.16480541  0.18640584
   0.49765261  0.16483186  0.18669559
   0.83560426  0.16491335  0.18666204
   0.16666965  0.49994238  0.18603360
   0.49989872  0.49996752  0.18574285
   0.83343182  0.49997107  0.18570492
   0.16672773  0.83526839  0.18643358
   0.49763486  0.83522192  0.18670802
   0.83562029  0.83513322  0.18667415
   0.00000000  0.00000000  0.09212609
   0.33333333  0.00000000  0.09212609
   0.66666667  0.00000000  0.09212609
   0.00000000  0.33333333  0.09212609
   0.33333333  0.33333333  0.09212609
   0.66666667  0.33333333  0.09212609
   0.00000000  0.66666667  0.09212609
   0.33333333  0.66666667  0.09212609
   0.66666667  0.66666667  0.09212609
   0.16666667  0.16666667  0.00000000
   0.50000000  0.16666667  0.00000000
   0.83333333  0.16666667  0.00000000
   0.16666667  0.50000000  0.00000000
   0.50000000  0.50000000  0.00000000
   0.83333333  0.50000000  0.00000000
   0.16666667  0.83333333  0.00000000
   0.50000000  0.83333333  0.00000000
   0.83333333  0.83333333  0.00000000
Direct configuration=     5
   0.16960232  0.00471639  0.38241099
  -0.00113481  0.00005565  0.28636296
   0.33494130  0.00004782  0.28651241
   0.66669099 -0.00000381  0.27832825
  -0.00046080  0.33428155  0.27870434
   0.33375836  0.33427203  0.27873334
   0.66667291  0.33315505  0.27845848
  -0.00044460  0.66575918  0.27862936
   0.33374846  0.66576621  0.27865190
   0.66667369  0.66685373  0.27846644
   0.16671964  0.16442998  0.18666219
   0.49718599  0.16448645  0.18689480
   0.83606734  0.16458908  0.18685648
   0.16667000  0.49993589  0.18598227
   0.50002749  0.49996645  0.18563921
   0.83330477  0.49997038  0.18559513
   0.16672089  0.83566261  0.18669297
   0.49716209  0.83557893  0.18691225
   0.83608917  0.83546884  0.18687257
   0.00000000  0.00000000  0.09212609
   0.33333333  0.00000000  0.09212609
   0.66666667  0.00000000  0.09212609
   0.00000000  0.33333333  0.09212609
   0.33333333  0.33333333  0.09212609
   0.66666667  0.33333333  0.09212609
   0.00000000  0.66666667  0.09212609
   0.33333333  0.66666667  0.09212609
   0.66666667  0.66666667  0.09212609
   0.16666667  0.16666667  0.00000000
   0.50000000  0.16666667  0.00000000
   0.83333333  0.16666667  0.00000000
   0.16666667  0.50000000  0.00000000
   0.50000000  0.50000000  0.00000000
   0.83333333  0.50000000  0.00000000
   0.16666667  0.83333333  0.00000000
   0.50000000  0.83333333  0.00000000
   0.83333333  0.83333333  0.00000000
Direct configuration=     6
   0.16784656  0.00482128  0.37498836
  -0.00838120 -0.00009068  0.28521959
   0.34347761 -0.00014161  0.28464122
   0.66709318  0.00000131  0.27854870
  -0.00077411  0.33546560  0.27851079
   0.33405418  0.33550725  0.27855219
   0.66667661  0.33316121  0.27839109
  -0.00073093  0.66461153  0.27845414
   0.33400832  0.66455418  0.27848694
   0.66667640  0.66685146  0.27840203
   0.16661926  0.16391780  0.18721439
   0.49687732  0.16459856  0.18694337
   0.83651725  0.16451230  0.18697114
   0.16666569  0.49994781  0.18574762
   0.50047596  0.49997849  0.18530982
   0.83285201  0.49998216  0.18528579
   0.16661876  0.83620261  0.18723708
   0.49683273  0.83549998  0.18696936
   0.83655059  0.83557250  0.18699152
   0.00000000  0.00000000  0.09212609
   0.33333333  0.00000000  0.09212609
   0.66666667  0.00000000  0.09212609
   0.00000000  0.33333333  0.09212609
   0.33333333  0.33333333  0.09212609
   0.66666667  0.33333333  0.09212609
   0.00000000  0.66666667  0.09212609
   0.33333333  0.66666667  0.09212609
   0.66666667  0.66666667  0.09212609
   0.16666667  0.16666667  0.00000000
   0.50000000  0.16666667  0.00000000
   0.83333333  0.16666667  0.00000000
   0.16666667  0.50000000  0.00000000
   0.50000000  0.50000000  0.00000000
   0.83333333  0.50000000  0.00000000
   0.16666667  0.83333333  0.00000000
   0.50000000  0.83333333  0.00000000
   0.83333333  0.83333333  0.00000000
Direct configuration=     7
   0.16811871  0.00504910  0.37594497
  -0.01008248 -0.00018742  0.28344460
   0.34408236 -0.00020414  0.28330258
   0.66749568  0.00000283  0.27842273
  -0.00078782  0.33549753  0.27848536
   0.33406951  0.33549251  0.27850779
   0.66666452  0.33324578  0.27837419
  -0.00074478  0.66453157  0.27842890
   0.33402608  0.66449518  0.27844614
   0.66666539  0.66677735  0.27838828
   0.16664342  0.16442525  0.18697289
   0.49781321  0.16530017  0.18639052
   0.83578195  0.16511252  0.18649456
   0.16664906  0.49994927  0.18564106
   0.50041756  0.49998976  0.18526261
   0.83290540  0.49998872  0.18523697
   0.16663608  0.83567666  0.18699073
   0.49779013  0.83478769  0.18641044
   0.83580980  0.83497730  0.18652018
   0.00000000  0.00000000  0.09212609
   0.33333333  0.00000000  0.09212609
   0.66666667  0.00000000  0.09212609
   0.00000000  0.33333333  0.09212609
   0.33333333  0.33333333  0.09212609
   0.66666667  0.33333333  0.09212609
   0.00000000  0.66666667  0.09212609
   0.33333333  0.66666667  0.09212609
   0.66666667  0.66666667  0.09212609
   0.16666667  0.16666667  0.00000000
   0.50000000  0.16666667  0.00000000
   0.83333333  0.16666667  0.00000000
   0.16666667  0.50000000  0.00000000
   0.50000000  0.50000000  0.00000000
   0.83333333  0.50000000  0.00000000
   0.16666667  0.83333333  0.00000000
   0.50000000  0.83333333  0.00000000
   0.83333333  0.83333333  0.00000000
Direct configuration=     8
   0.16803410  0.00508697  0.37538628
  -0.00916073 -0.00017969  0.28353519
   0.34336926 -0.00019909  0.28334815
   0.66730556  0.00000532  0.27835591
  -0.00078500  0.33541977  0.27847250
   0.33407651  0.33540106  0.27848641
   0.66666047  0.33324609  0.27836281
  -0.00074336  0.66458288  0.27841352
   0.33403507  0.66456405  0.27842241
   0.66666064  0.66677967  0.27837842
   0.16667789  0.16444740  0.18692597
   0.49787380  0.16532915  0.18633875
   0.83570820  0.16524093  0.18640501
   0.16664818  0.49994530  0.18564440
   0.50040691  0.49998732  0.18526986
   0.83290979  0.49998847  0.18524297
   0.16667256  0.83564867  0.18694243
   0.49785015  0.83475632  0.18635846
   0.83573303  0.83484674  0.18642865
   0.00000000  0.00000000  0.09212609
   0.33333333  0.00000000  0.09212609
   0.66666667  0.00000000  0.09212609
   0.00000000  0.33333333  0.09212609
   0.33333333  0.33333333  0.09212609
   0.66666667  0.33333333  0.09212609
   0.00000000  0.66666667  0.09212609
   0.33333333  0.66666667  0.09212609
   0.66666667  0.66666667  0.09212609
   0.16666667  0.16666667  0.00000000
   0.50000000  0.16666667  0.00000000
   0.83333333  0.16666667  0.00000000
   0.16666667  0.50000000  0.00000000
   0.50000000  0.50000000  0.00000000
   0.83333333  0.50000000  0.00000000
   0.16666667  0.83333333  0.00000000
   0.50000000  0.83333333  0.00000000
   0.83333333  0.83333333  0.00000000
Direct configuration=     9
   0.16796815  0.00519625  0.37494095
  -0.00853964 -0.00019572  0.28318928
   0.34276174 -0.00021194  0.28303672
   0.66718431  0.00000893  0.27820807
  -0.00079967  0.33532821  0.27843171
   0.33410406  0.33528999  0.27843155
   0.66665514  0.33325290  0.27833425
  -0.00075886  0.66462903  0.27836901
   0.33406531  0.66462983  0.27836568
   0.66665455  0.66677973  0.27835263
   0.16672096  0.16458398  0.18679779
   0.49808874  0.16546411  0.18617927
   0.83551805  0.16545180  0.18622031
   0.16664309  0.49993931  0.18562856
   0.50037843  0.49998519  0.18526771
   0.83292849  0.49998901  0.18524043
   0.16671655  0.83549944  0.18681339
   0.49806719  0.83461617  0.18619824
   0.83554022  0.83463443  0.18624321
   0.00000000  0.00000000  0.09212609
   0.33333333  0.00000000  0.09212609
   0.66666667  0.00000000  0.09212609
   0.00000000  0.33333333  0.09212609
   0.33333333  0.33333333  0.09212609
   0.66666667  0.33333333  0.09212609
   0.00000000  0.66666667  0.09212609
   0.33333333  0.66666667  0.09212609
   0.66666667  0.66666667  0.09212609
   0.16666667  0.16666667  0.00000000
   0.50000000  0.16666667  0.00000000
   0.83333333  0.16666667  0.00000000
   0.16666667  0.50000000  0.00000000
   0.50000000  0.50000000  0.00000000
   0.83333333  0.50000000  0.00000000
   0.16666667  0.83333333  0.00000000
   0.50000000  0.83333333  0.00000000
   0.83333333  0.83333333  0.00000000
Direct configuration=    10
   0.16665014  0.00639199  0.36955044
  -0.00540817 -0.00037051  0.28010523
   0.34026251 -0.00036759  0.28005030
   0.66639461  0.00004402  0.27667719
  -0.00107641  0.33454974  0.27791655
   0.33448533  0.33453271  0.27785044
   0.66670132  0.33306520  0.27806946
  -0.00102438  0.66500803  0.27782073
   0.33445463  0.66506308  0.27776369
   0.66669986  0.66706382  0.27810778
   0.16698467  0.16554537  0.18555139
   0.49833087  0.16552105  0.18555380
   0.83532792  0.16584092  0.18542341
   0.16659560  0.49980192  0.18566642
   0.50027086  0.49993310  0.18526418
   0.83293414  0.49995331  0.18528806
   0.16701769  0.83438802  0.18556834
   0.49827561  0.83451270  0.18559246
   0.83535999  0.83415213  0.18544354
   0.00000000  0.00000000  0.09212609
   0.33333333  0.00000000  0.09212609
   0.66666667  0.00000000  0.09212609
   0.00000000  0.33333333  0.09212609
   0.33333333  0.33333333  0.09212609
   0.66666667  0.33333333  0.09212609
   0.00000000  0.66666667  0.09212609
   0.33333333  0.66666667  0.09212609
   0.66666667  0.66666667  0.09212609
   0.16666667  0.16666667  0.00000000
   0.50000000  0.16666667  0.00000000
   0.83333333  0.16666667  0.00000000
   0.16666667  0.50000000  0.00000000
   0.50000000  0.50000000  0.00000000
   0.83333333  0.50000000  0.00000000
   0.16666667  0.83333333  0.00000000
   0.50000000  0.83333333  0.00000000
   0.83333333  0.83333333  0.00000000
Direct configuration=    11
   0.16742833  0.00589261  0.37302199
  -0.00803346 -0.00032717  0.28153785
   0.34234062 -0.00032942  0.28149250
   0.66691736  0.00002763  0.27754305
  -0.00088964  0.33508087  0.27817135
   0.33424260  0.33506374  0.27815329
   0.66668280  0.33315558  0.27818981
  -0.00082926  0.66468843  0.27809444
   0.33419972  0.66469917  0.27807746
   0.66668314  0.66691974  0.27821697
   0.16680430  0.16511461  0.18617434
   0.49824274  0.16569886  0.18584360
   0.83537963  0.16574352  0.18584107
   0.16661868  0.49987537  0.18562083
   0.50040934  0.49995910  0.18521582
   0.83287028  0.49996331  0.18521273
   0.16680602  0.83487874  0.18619211
   0.49821128  0.83435647  0.18587034
   0.83540983  0.83430762  0.18586588
   0.00000000  0.00000000  0.09212609
   0.33333333  0.00000000  0.09212609
   0.66666667  0.00000000  0.09212609
   0.00000000  0.33333333  0.09212609
   0.33333333  0.33333333  0.09212609
   0.66666667  0.33333333  0.09212609
   0.00000000  0.66666667  0.09212609
   0.33333333  0.66666667  0.09212609
   0.66666667  0.66666667  0.09212609
   0.16666667  0.16666667  0.00000000
   0.50000000  0.16666667  0.00000000
   0.83333333  0.16666667  0.00000000
   0.16666667  0.50000000  0.00000000
   0.50000000  0.50000000  0.00000000
   0.83333333  0.50000000  0.00000000
   0.16666667  0.83333333  0.00000000
   0.50000000  0.83333333  0.00000000
   0.83333333  0.83333333  0.00000000
Direct configuration=    12
   0.16738615  0.00606652  0.37301542
  -0.00823256 -0.00034421  0.28142880
   0.34239763 -0.00036014  0.28139720
   0.66703491  0.00003064  0.27749743
  -0.00086489  0.33506790  0.27813539
   0.33422481  0.33506048  0.27811859
   0.66668871  0.33314538  0.27816202
  -0.00080602  0.66465760  0.27805450
   0.33418479  0.66466970  0.27803953
   0.66668981  0.66693348  0.27818908
   0.16678724  0.16512134  0.18613363
   0.49825344  0.16573139  0.18580327
   0.83535025  0.16573889  0.18582004
   0.16662238  0.49986315  0.18558431
   0.50041632  0.49995685  0.18518827
   0.83286808  0.49996088  0.18518144
   0.16678927  0.83485000  0.18615086
   0.49822583  0.83431429  0.18582900
   0.83538056  0.83430933  0.18584565
   0.00000000  0.00000000  0.09212609
   0.33333333  0.00000000  0.09212609
   0.66666667  0.00000000  0.09212609
   0.00000000  0.33333333  0.09212609
   0.33333333  0.33333333  0.09212609
   0.66666667  0.33333333  0.09212609
   0.00000000  0.66666667  0.09212609
   0.33333333  0.66666667  0.09212609
   0.66666667  0.66666667  0.09212609
   0.16666667  0.16666667  0.00000000
   0.50000000  0.16666667  0.00000000
   0.83333333  0.16666667  0.00000000
   0.16666667  0.50000000  0.00000000
   0.50000000  0.50000000  0.00000000
   0.83333333  0.50000000  0.00000000
   0.16666667  0.83333333  0.00000000
   0.50000000  0.83333333  0.00000000
   0.83333333  0.83333333  0.00000000
Direct configuration=    13
   0.16727611  0.00627774  0.37273879
  -0.00838107 -0.00037622  0.28118005
   0.34244960 -0.00040001  0.28116107
   0.66708643  0.00003719  0.27738726
  -0.00085695  0.33503995  0.27806977
   0.33423191  0.33503970  0.27805308
   0.66669510  0.33313521  0.27811812
  -0.00079793  0.66462745  0.27798320
   0.33419048  0.66464213  0.27797000
   0.66669863  0.66695475  0.27814548
   0.16677758  0.16516262  0.18604229
   0.49825739  0.16575190  0.18574713
   0.83532791  0.16575080  0.18576823
   0.16662389  0.49984158  0.18554883
   0.50042201  0.49995155  0.18516053
   0.83286358  0.49995567  0.18515117
   0.16678086  0.83478090  0.18605961
   0.49823184  0.83428472  0.18577210
   0.83536064  0.83429323  0.18579493
   0.00000000  0.00000000  0.09212609
   0.33333333  0.00000000  0.09212609
   0.66666667  0.00000000  0.09212609
   0.00000000  0.33333333  0.09212609
   0.33333333  0.33333333  0.09212609
   0.66666667  0.33333333  0.09212609
   0.00000000  0.66666667  0.09212609
   0.33333333  0.66666667  0.09212609
   0.66666667  0.66666667  0.09212609
   0.16666667  0.16666667  0.00000000
   0.50000000  0.16666667  0.00000000
   0.83333333  0.16666667  0.00000000
   0.16666667  0.50000000  0.00000000
   0.50000000  0.50000000  0.00000000
   0.83333333  0.50000000  0.00000000
   0.16666667  0.83333333  0.00000000
   0.50000000  0.83333333  0.00000000
   0.83333333  0.83333333  0.00000000
Direct configuration=    14
   0.16727611  0.00627774  0.37273879
  -0.00838107 -0.00037622  0.28118005
   0.34244960 -0.00040001  0.28116107
   0.66708643  0.00003719  0.27738726
  -0.00085695  0.33503995  0.27806977
   0.33423191  0.33503970  0.27805308
   0.66669510  0.33313521  0.27811812
  -0.00079793  0.66462745  0.27798320
   0.33419048  0.66464213  0.27797000
   0.66669863  0.66695475  0.27814548
   0.16677758  0.16516262  0.18604229
   0.49825739  0.16575190  0.18574713
   0.83532791  0.16575080  0.18576823
   0.16662389  0.49984158  0.18554883
   0.50042201  0.49995155  0.18516053
   0.83286358  0.49995567  0.18515117
   0.16678086  0.83478090  0.18605961
   0.49823184  0.83428472  0.18577210
   0.83536064  0.83429323  0.18579493
   0.00000000  0.00000000  0.09212609
   0.33333333  0.00000000  0.09212609
   0.66666667  0.00000000  0.09212609
   0.00000000  0.33333333  0.09212609
   0.33333333  0.33333333  0.09212609
   0.66666667  0.33333333  0.09212609
   0.00000000  0.66666667  0.09212609
   0.33333333  0.66666667  0.09212609
   0.66666667  0.66666667  0.09212609
   0.16666667  0.16666667  0.00000000
   0.50000000  0.16666667  0.00000000
   0.83333333  0.16666667  0.00000000
   0.16666667  0.50000000  0.00000000
   0.50000000  0.50000000  0.00000000
   0.83333333  0.50000000  0.00000000
   0.16666667  0.83333333  0.00000000
   0.50000000  0.83333333  0.00000000
   0.83333333  0.83333333  0.00000000
